    1C
    1UAcrylic Pan graded C3D20R modal model                             
    1UUSER                                                              
    1UDATE              18.july.2026                                    
    1UTIME              10:52:42                                        
    1UHOST                                                              
    1UPGM               CalculiX                                        
    1UVERSION           Version 2.20                             
    1UCOMPILETIME       Sun Jul 31 18:08:37 CEST 2022                    
    1UDIR                                                               
    1UDBN                                                               
    1UMAT    1PMMA                                                      
    2C                          3357                                     1
 -1         1 0.00000E+00 0.00000E+00-1.50000E+00
 -1         2 2.50000E+01 0.00000E+00-1.50000E+00
 -1         3 2.50000E+01 5.00000E+00-1.50000E+00
 -1         4 0.00000E+00 5.00000E+00-1.50000E+00
 -1         5 0.00000E+00 0.00000E+00 0.00000E+00
 -1         6 2.50000E+01 0.00000E+00 0.00000E+00
 -1         7 2.50000E+01 5.00000E+00 0.00000E+00
 -1         8 0.00000E+00 5.00000E+00 0.00000E+00
 -1         9 1.25000E+01 0.00000E+00-1.50000E+00
 -1        10 2.50000E+01 2.50000E+00-1.50000E+00
 -1        11 1.25000E+01 5.00000E+00-1.50000E+00
 -1        12 0.00000E+00 2.50000E+00-1.50000E+00
 -1        13 1.25000E+01 0.00000E+00 0.00000E+00
 -1        14 2.50000E+01 2.50000E+00 0.00000E+00
 -1        15 1.25000E+01 5.00000E+00 0.00000E+00
 -1        16 0.00000E+00 2.50000E+00 0.00000E+00
 -1        17 0.00000E+00 0.00000E+00-7.50000E-01
 -1        18 2.50000E+01 0.00000E+00-7.50000E-01
 -1        19 2.50000E+01 5.00000E+00-7.50000E-01
 -1        20 0.00000E+00 5.00000E+00-7.50000E-01
 -1        21 5.00000E+01 0.00000E+00-1.50000E+00
 -1        22 5.00000E+01 5.00000E+00-1.50000E+00
 -1        23 5.00000E+01 0.00000E+00 0.00000E+00
 -1        24 5.00000E+01 5.00000E+00 0.00000E+00
 -1        25 3.75000E+01 0.00000E+00-1.50000E+00
 -1        26 5.00000E+01 2.50000E+00-1.50000E+00
 -1        27 3.75000E+01 5.00000E+00-1.50000E+00
 -1        28 3.75000E+01 0.00000E+00 0.00000E+00
 -1        29 5.00000E+01 2.50000E+00 0.00000E+00
 -1        30 3.75000E+01 5.00000E+00 0.00000E+00
 -1        31 5.00000E+01 0.00000E+00-7.50000E-01
 -1        32 5.00000E+01 5.00000E+00-7.50000E-01
 -1        33 7.50000E+01 0.00000E+00-1.50000E+00
 -1        34 7.50000E+01 5.00000E+00-1.50000E+00
 -1        35 7.50000E+01 0.00000E+00 0.00000E+00
 -1        36 7.50000E+01 5.00000E+00 0.00000E+00
 -1        37 6.25000E+01 0.00000E+00-1.50000E+00
 -1        38 7.50000E+01 2.50000E+00-1.50000E+00
 -1        39 6.25000E+01 5.00000E+00-1.50000E+00
 -1        40 6.25000E+01 0.00000E+00 0.00000E+00
 -1        41 7.50000E+01 2.50000E+00 0.00000E+00
 -1        42 6.25000E+01 5.00000E+00 0.00000E+00
 -1        43 7.50000E+01 0.00000E+00-7.50000E-01
 -1        44 7.50000E+01 5.00000E+00-7.50000E-01
 -1        45 1.00000E+02 0.00000E+00-1.50000E+00
 -1        46 1.00000E+02 5.00000E+00-1.50000E+00
 -1        47 1.00000E+02 0.00000E+00 0.00000E+00
 -1        48 1.00000E+02 5.00000E+00 0.00000E+00
 -1        49 8.75000E+01 0.00000E+00-1.50000E+00
 -1        50 1.00000E+02 2.50000E+00-1.50000E+00
 -1        51 8.75000E+01 5.00000E+00-1.50000E+00
 -1        52 8.75000E+01 0.00000E+00 0.00000E+00
 -1        53 1.00000E+02 2.50000E+00 0.00000E+00
 -1        54 8.75000E+01 5.00000E+00 0.00000E+00
 -1        55 1.00000E+02 0.00000E+00-7.50000E-01
 -1        56 1.00000E+02 5.00000E+00-7.50000E-01
 -1        57 1.25000E+02 0.00000E+00-1.50000E+00
 -1        58 1.25000E+02 5.00000E+00-1.50000E+00
 -1        59 1.25000E+02 0.00000E+00 0.00000E+00
 -1        60 1.25000E+02 5.00000E+00 0.00000E+00
 -1        61 1.12500E+02 0.00000E+00-1.50000E+00
 -1        62 1.25000E+02 2.50000E+00-1.50000E+00
 -1        63 1.12500E+02 5.00000E+00-1.50000E+00
 -1        64 1.12500E+02 0.00000E+00 0.00000E+00
 -1        65 1.25000E+02 2.50000E+00 0.00000E+00
 -1        66 1.12500E+02 5.00000E+00 0.00000E+00
 -1        67 1.25000E+02 0.00000E+00-7.50000E-01
 -1        68 1.25000E+02 5.00000E+00-7.50000E-01
 -1        69 1.50000E+02 0.00000E+00-1.50000E+00
 -1        70 1.50000E+02 5.00000E+00-1.50000E+00
 -1        71 1.50000E+02 0.00000E+00 0.00000E+00
 -1        72 1.50000E+02 5.00000E+00 0.00000E+00
 -1        73 1.37500E+02 0.00000E+00-1.50000E+00
 -1        74 1.50000E+02 2.50000E+00-1.50000E+00
 -1        75 1.37500E+02 5.00000E+00-1.50000E+00
 -1        76 1.37500E+02 0.00000E+00 0.00000E+00
 -1        77 1.50000E+02 2.50000E+00 0.00000E+00
 -1        78 1.37500E+02 5.00000E+00 0.00000E+00
 -1        79 1.50000E+02 0.00000E+00-7.50000E-01
 -1        80 1.50000E+02 5.00000E+00-7.50000E-01
 -1        81 1.75000E+02 0.00000E+00-1.50000E+00
 -1        82 1.75000E+02 5.00000E+00-1.50000E+00
 -1        83 1.75000E+02 0.00000E+00 0.00000E+00
 -1        84 1.75000E+02 5.00000E+00 0.00000E+00
 -1        85 1.62500E+02 0.00000E+00-1.50000E+00
 -1        86 1.75000E+02 2.50000E+00-1.50000E+00
 -1        87 1.62500E+02 5.00000E+00-1.50000E+00
 -1        88 1.62500E+02 0.00000E+00 0.00000E+00
 -1        89 1.75000E+02 2.50000E+00 0.00000E+00
 -1        90 1.62500E+02 5.00000E+00 0.00000E+00
 -1        91 1.75000E+02 0.00000E+00-7.50000E-01
 -1        92 1.75000E+02 5.00000E+00-7.50000E-01
 -1        93 1.90000E+02 0.00000E+00-1.50000E+00
 -1        94 1.90000E+02 5.00000E+00-1.50000E+00
 -1        95 1.90000E+02 0.00000E+00 0.00000E+00
 -1        96 1.90000E+02 5.00000E+00 0.00000E+00
 -1        97 1.82500E+02 0.00000E+00-1.50000E+00
 -1        98 1.90000E+02 2.50000E+00-1.50000E+00
 -1        99 1.82500E+02 5.00000E+00-1.50000E+00
 -1       100 1.82500E+02 0.00000E+00 0.00000E+00
 -1       101 1.90000E+02 2.50000E+00 0.00000E+00
 -1       102 1.82500E+02 5.00000E+00 0.00000E+00
 -1       103 1.90000E+02 0.00000E+00-7.50000E-01
 -1       104 1.90000E+02 5.00000E+00-7.50000E-01
 -1       105 2.00000E+02 0.00000E+00-1.50000E+00
 -1       106 2.00000E+02 5.00000E+00-1.50000E+00
 -1       107 2.00000E+02 0.00000E+00 0.00000E+00
 -1       108 2.00000E+02 5.00000E+00 0.00000E+00
 -1       109 1.95000E+02 0.00000E+00-1.50000E+00
 -1       110 2.00000E+02 2.50000E+00-1.50000E+00
 -1       111 1.95000E+02 5.00000E+00-1.50000E+00
 -1       112 1.95000E+02 0.00000E+00 0.00000E+00
 -1       113 2.00000E+02 2.50000E+00 0.00000E+00
 -1       114 1.95000E+02 5.00000E+00 0.00000E+00
 -1       115 2.00000E+02 0.00000E+00-7.50000E-01
 -1       116 2.00000E+02 5.00000E+00-7.50000E-01
 -1       117 2.10000E+02 0.00000E+00-1.50000E+00
 -1       118 2.10000E+02 5.00000E+00-1.50000E+00
 -1       119 2.10000E+02 0.00000E+00 0.00000E+00
 -1       120 2.10000E+02 5.00000E+00 0.00000E+00
 -1       121 2.05000E+02 0.00000E+00-1.50000E+00
 -1       122 2.10000E+02 2.50000E+00-1.50000E+00
 -1       123 2.05000E+02 5.00000E+00-1.50000E+00
 -1       124 2.05000E+02 0.00000E+00 0.00000E+00
 -1       125 2.10000E+02 2.50000E+00 0.00000E+00
 -1       126 2.05000E+02 5.00000E+00 0.00000E+00
 -1       127 2.10000E+02 0.00000E+00-7.50000E-01
 -1       128 2.10000E+02 5.00000E+00-7.50000E-01
 -1       129 2.25000E+02 0.00000E+00-1.50000E+00
 -1       130 2.25000E+02 5.00000E+00-1.50000E+00
 -1       131 2.25000E+02 0.00000E+00 0.00000E+00
 -1       132 2.25000E+02 5.00000E+00 0.00000E+00
 -1       133 2.17500E+02 0.00000E+00-1.50000E+00
 -1       134 2.25000E+02 2.50000E+00-1.50000E+00
 -1       135 2.17500E+02 5.00000E+00-1.50000E+00
 -1       136 2.17500E+02 0.00000E+00 0.00000E+00
 -1       137 2.25000E+02 2.50000E+00 0.00000E+00
 -1       138 2.17500E+02 5.00000E+00 0.00000E+00
 -1       139 2.25000E+02 0.00000E+00-7.50000E-01
 -1       140 2.25000E+02 5.00000E+00-7.50000E-01
 -1       141 2.50000E+02 0.00000E+00-1.50000E+00
 -1       142 2.50000E+02 5.00000E+00-1.50000E+00
 -1       143 2.50000E+02 0.00000E+00 0.00000E+00
 -1       144 2.50000E+02 5.00000E+00 0.00000E+00
 -1       145 2.37500E+02 0.00000E+00-1.50000E+00
 -1       146 2.50000E+02 2.50000E+00-1.50000E+00
 -1       147 2.37500E+02 5.00000E+00-1.50000E+00
 -1       148 2.37500E+02 0.00000E+00 0.00000E+00
 -1       149 2.50000E+02 2.50000E+00 0.00000E+00
 -1       150 2.37500E+02 5.00000E+00 0.00000E+00
 -1       151 2.50000E+02 0.00000E+00-7.50000E-01
 -1       152 2.50000E+02 5.00000E+00-7.50000E-01
 -1       153 2.75000E+02 0.00000E+00-1.50000E+00
 -1       154 2.75000E+02 5.00000E+00-1.50000E+00
 -1       155 2.75000E+02 0.00000E+00 0.00000E+00
 -1       156 2.75000E+02 5.00000E+00 0.00000E+00
 -1       157 2.62500E+02 0.00000E+00-1.50000E+00
 -1       158 2.75000E+02 2.50000E+00-1.50000E+00
 -1       159 2.62500E+02 5.00000E+00-1.50000E+00
 -1       160 2.62500E+02 0.00000E+00 0.00000E+00
 -1       161 2.75000E+02 2.50000E+00 0.00000E+00
 -1       162 2.62500E+02 5.00000E+00 0.00000E+00
 -1       163 2.75000E+02 0.00000E+00-7.50000E-01
 -1       164 2.75000E+02 5.00000E+00-7.50000E-01
 -1       165 2.90000E+02 0.00000E+00-1.50000E+00
 -1       166 2.90000E+02 5.00000E+00-1.50000E+00
 -1       167 2.90000E+02 0.00000E+00 0.00000E+00
 -1       168 2.90000E+02 5.00000E+00 0.00000E+00
 -1       169 2.82500E+02 0.00000E+00-1.50000E+00
 -1       170 2.90000E+02 2.50000E+00-1.50000E+00
 -1       171 2.82500E+02 5.00000E+00-1.50000E+00
 -1       172 2.82500E+02 0.00000E+00 0.00000E+00
 -1       173 2.90000E+02 2.50000E+00 0.00000E+00
 -1       174 2.82500E+02 5.00000E+00 0.00000E+00
 -1       175 2.90000E+02 0.00000E+00-7.50000E-01
 -1       176 2.90000E+02 5.00000E+00-7.50000E-01
 -1       177 3.00000E+02 0.00000E+00-1.50000E+00
 -1       178 3.00000E+02 5.00000E+00-1.50000E+00
 -1       179 3.00000E+02 0.00000E+00 0.00000E+00
 -1       180 3.00000E+02 5.00000E+00 0.00000E+00
 -1       181 2.95000E+02 0.00000E+00-1.50000E+00
 -1       182 3.00000E+02 2.50000E+00-1.50000E+00
 -1       183 2.95000E+02 5.00000E+00-1.50000E+00
 -1       184 2.95000E+02 0.00000E+00 0.00000E+00
 -1       185 3.00000E+02 2.50000E+00 0.00000E+00
 -1       186 2.95000E+02 5.00000E+00 0.00000E+00
 -1       187 3.00000E+02 0.00000E+00-7.50000E-01
 -1       188 3.00000E+02 5.00000E+00-7.50000E-01
 -1       189 3.10000E+02 0.00000E+00-1.50000E+00
 -1       190 3.10000E+02 5.00000E+00-1.50000E+00
 -1       191 3.10000E+02 0.00000E+00 0.00000E+00
 -1       192 3.10000E+02 5.00000E+00 0.00000E+00
 -1       193 3.05000E+02 0.00000E+00-1.50000E+00
 -1       194 3.10000E+02 2.50000E+00-1.50000E+00
 -1       195 3.05000E+02 5.00000E+00-1.50000E+00
 -1       196 3.05000E+02 0.00000E+00 0.00000E+00
 -1       197 3.10000E+02 2.50000E+00 0.00000E+00
 -1       198 3.05000E+02 5.00000E+00 0.00000E+00
 -1       199 3.10000E+02 0.00000E+00-7.50000E-01
 -1       200 3.10000E+02 5.00000E+00-7.50000E-01
 -1       201 3.25000E+02 0.00000E+00-1.50000E+00
 -1       202 3.25000E+02 5.00000E+00-1.50000E+00
 -1       203 3.25000E+02 0.00000E+00 0.00000E+00
 -1       204 3.25000E+02 5.00000E+00 0.00000E+00
 -1       205 3.17500E+02 0.00000E+00-1.50000E+00
 -1       206 3.25000E+02 2.50000E+00-1.50000E+00
 -1       207 3.17500E+02 5.00000E+00-1.50000E+00
 -1       208 3.17500E+02 0.00000E+00 0.00000E+00
 -1       209 3.25000E+02 2.50000E+00 0.00000E+00
 -1       210 3.17500E+02 5.00000E+00 0.00000E+00
 -1       211 3.25000E+02 0.00000E+00-7.50000E-01
 -1       212 3.25000E+02 5.00000E+00-7.50000E-01
 -1       213 3.50000E+02 0.00000E+00-1.50000E+00
 -1       214 3.50000E+02 5.00000E+00-1.50000E+00
 -1       215 3.50000E+02 0.00000E+00 0.00000E+00
 -1       216 3.50000E+02 5.00000E+00 0.00000E+00
 -1       217 3.37500E+02 0.00000E+00-1.50000E+00
 -1       218 3.50000E+02 2.50000E+00-1.50000E+00
 -1       219 3.37500E+02 5.00000E+00-1.50000E+00
 -1       220 3.37500E+02 0.00000E+00 0.00000E+00
 -1       221 3.50000E+02 2.50000E+00 0.00000E+00
 -1       222 3.37500E+02 5.00000E+00 0.00000E+00
 -1       223 3.50000E+02 0.00000E+00-7.50000E-01
 -1       224 3.50000E+02 5.00000E+00-7.50000E-01
 -1       225 3.75000E+02 0.00000E+00-1.50000E+00
 -1       226 3.75000E+02 5.00000E+00-1.50000E+00
 -1       227 3.75000E+02 0.00000E+00 0.00000E+00
 -1       228 3.75000E+02 5.00000E+00 0.00000E+00
 -1       229 3.62500E+02 0.00000E+00-1.50000E+00
 -1       230 3.75000E+02 2.50000E+00-1.50000E+00
 -1       231 3.62500E+02 5.00000E+00-1.50000E+00
 -1       232 3.62500E+02 0.00000E+00 0.00000E+00
 -1       233 3.75000E+02 2.50000E+00 0.00000E+00
 -1       234 3.62500E+02 5.00000E+00 0.00000E+00
 -1       235 3.75000E+02 0.00000E+00-7.50000E-01
 -1       236 3.75000E+02 5.00000E+00-7.50000E-01
 -1       237 4.00000E+02 0.00000E+00-1.50000E+00
 -1       238 4.00000E+02 5.00000E+00-1.50000E+00
 -1       239 4.00000E+02 0.00000E+00 0.00000E+00
 -1       240 4.00000E+02 5.00000E+00 0.00000E+00
 -1       241 3.87500E+02 0.00000E+00-1.50000E+00
 -1       242 4.00000E+02 2.50000E+00-1.50000E+00
 -1       243 3.87500E+02 5.00000E+00-1.50000E+00
 -1       244 3.87500E+02 0.00000E+00 0.00000E+00
 -1       245 4.00000E+02 2.50000E+00 0.00000E+00
 -1       246 3.87500E+02 5.00000E+00 0.00000E+00
 -1       247 4.00000E+02 0.00000E+00-7.50000E-01
 -1       248 4.00000E+02 5.00000E+00-7.50000E-01
 -1       249 2.50000E+01 1.00000E+01-1.50000E+00
 -1       250 0.00000E+00 1.00000E+01-1.50000E+00
 -1       251 2.50000E+01 1.00000E+01 0.00000E+00
 -1       252 0.00000E+00 1.00000E+01 0.00000E+00
 -1       253 2.50000E+01 7.50000E+00-1.50000E+00
 -1       254 1.25000E+01 1.00000E+01-1.50000E+00
 -1       255 0.00000E+00 7.50000E+00-1.50000E+00
 -1       256 2.50000E+01 7.50000E+00 0.00000E+00
 -1       257 1.25000E+01 1.00000E+01 0.00000E+00
 -1       258 0.00000E+00 7.50000E+00 0.00000E+00
 -1       259 2.50000E+01 1.00000E+01-7.50000E-01
 -1       260 0.00000E+00 1.00000E+01-7.50000E-01
 -1       261 5.00000E+01 1.00000E+01-1.50000E+00
 -1       262 5.00000E+01 1.00000E+01 0.00000E+00
 -1       263 5.00000E+01 7.50000E+00-1.50000E+00
 -1       264 3.75000E+01 1.00000E+01-1.50000E+00
 -1       265 5.00000E+01 7.50000E+00 0.00000E+00
 -1       266 3.75000E+01 1.00000E+01 0.00000E+00
 -1       267 5.00000E+01 1.00000E+01-7.50000E-01
 -1       268 7.50000E+01 1.00000E+01-1.50000E+00
 -1       269 7.50000E+01 1.00000E+01 0.00000E+00
 -1       270 7.50000E+01 7.50000E+00-1.50000E+00
 -1       271 6.25000E+01 1.00000E+01-1.50000E+00
 -1       272 7.50000E+01 7.50000E+00 0.00000E+00
 -1       273 6.25000E+01 1.00000E+01 0.00000E+00
 -1       274 7.50000E+01 1.00000E+01-7.50000E-01
 -1       275 1.00000E+02 1.00000E+01-1.50000E+00
 -1       276 1.00000E+02 1.00000E+01 0.00000E+00
 -1       277 1.00000E+02 7.50000E+00-1.50000E+00
 -1       278 8.75000E+01 1.00000E+01-1.50000E+00
 -1       279 1.00000E+02 7.50000E+00 0.00000E+00
 -1       280 8.75000E+01 1.00000E+01 0.00000E+00
 -1       281 1.00000E+02 1.00000E+01-7.50000E-01
 -1       282 1.25000E+02 1.00000E+01-1.50000E+00
 -1       283 1.25000E+02 1.00000E+01 0.00000E+00
 -1       284 1.25000E+02 7.50000E+00-1.50000E+00
 -1       285 1.12500E+02 1.00000E+01-1.50000E+00
 -1       286 1.25000E+02 7.50000E+00 0.00000E+00
 -1       287 1.12500E+02 1.00000E+01 0.00000E+00
 -1       288 1.25000E+02 1.00000E+01-7.50000E-01
 -1       289 1.50000E+02 1.00000E+01-1.50000E+00
 -1       290 1.50000E+02 1.00000E+01 0.00000E+00
 -1       291 1.50000E+02 7.50000E+00-1.50000E+00
 -1       292 1.37500E+02 1.00000E+01-1.50000E+00
 -1       293 1.50000E+02 7.50000E+00 0.00000E+00
 -1       294 1.37500E+02 1.00000E+01 0.00000E+00
 -1       295 1.50000E+02 1.00000E+01-7.50000E-01
 -1       296 1.75000E+02 1.00000E+01-1.50000E+00
 -1       297 1.75000E+02 1.00000E+01 0.00000E+00
 -1       298 1.75000E+02 7.50000E+00-1.50000E+00
 -1       299 1.62500E+02 1.00000E+01-1.50000E+00
 -1       300 1.75000E+02 7.50000E+00 0.00000E+00
 -1       301 1.62500E+02 1.00000E+01 0.00000E+00
 -1       302 1.75000E+02 1.00000E+01-7.50000E-01
 -1       303 1.90000E+02 1.00000E+01-1.50000E+00
 -1       304 1.90000E+02 1.00000E+01 0.00000E+00
 -1       305 1.90000E+02 7.50000E+00-1.50000E+00
 -1       306 1.82500E+02 1.00000E+01-1.50000E+00
 -1       307 1.90000E+02 7.50000E+00 0.00000E+00
 -1       308 1.82500E+02 1.00000E+01 0.00000E+00
 -1       309 1.90000E+02 1.00000E+01-7.50000E-01
 -1       310 2.00000E+02 1.00000E+01-1.50000E+00
 -1       311 2.00000E+02 1.00000E+01 0.00000E+00
 -1       312 2.00000E+02 7.50000E+00-1.50000E+00
 -1       313 1.95000E+02 1.00000E+01-1.50000E+00
 -1       314 2.00000E+02 7.50000E+00 0.00000E+00
 -1       315 1.95000E+02 1.00000E+01 0.00000E+00
 -1       316 2.00000E+02 1.00000E+01-7.50000E-01
 -1       317 2.10000E+02 1.00000E+01-1.50000E+00
 -1       318 2.10000E+02 1.00000E+01 0.00000E+00
 -1       319 2.10000E+02 7.50000E+00-1.50000E+00
 -1       320 2.05000E+02 1.00000E+01-1.50000E+00
 -1       321 2.10000E+02 7.50000E+00 0.00000E+00
 -1       322 2.05000E+02 1.00000E+01 0.00000E+00
 -1       323 2.10000E+02 1.00000E+01-7.50000E-01
 -1       324 2.25000E+02 1.00000E+01-1.50000E+00
 -1       325 2.25000E+02 1.00000E+01 0.00000E+00
 -1       326 2.25000E+02 7.50000E+00-1.50000E+00
 -1       327 2.17500E+02 1.00000E+01-1.50000E+00
 -1       328 2.25000E+02 7.50000E+00 0.00000E+00
 -1       329 2.17500E+02 1.00000E+01 0.00000E+00
 -1       330 2.25000E+02 1.00000E+01-7.50000E-01
 -1       331 2.50000E+02 1.00000E+01-1.50000E+00
 -1       332 2.50000E+02 1.00000E+01 0.00000E+00
 -1       333 2.50000E+02 7.50000E+00-1.50000E+00
 -1       334 2.37500E+02 1.00000E+01-1.50000E+00
 -1       335 2.50000E+02 7.50000E+00 0.00000E+00
 -1       336 2.37500E+02 1.00000E+01 0.00000E+00
 -1       337 2.50000E+02 1.00000E+01-7.50000E-01
 -1       338 2.75000E+02 1.00000E+01-1.50000E+00
 -1       339 2.75000E+02 1.00000E+01 0.00000E+00
 -1       340 2.75000E+02 7.50000E+00-1.50000E+00
 -1       341 2.62500E+02 1.00000E+01-1.50000E+00
 -1       342 2.75000E+02 7.50000E+00 0.00000E+00
 -1       343 2.62500E+02 1.00000E+01 0.00000E+00
 -1       344 2.75000E+02 1.00000E+01-7.50000E-01
 -1       345 2.90000E+02 1.00000E+01-1.50000E+00
 -1       346 2.90000E+02 1.00000E+01 0.00000E+00
 -1       347 2.90000E+02 7.50000E+00-1.50000E+00
 -1       348 2.82500E+02 1.00000E+01-1.50000E+00
 -1       349 2.90000E+02 7.50000E+00 0.00000E+00
 -1       350 2.82500E+02 1.00000E+01 0.00000E+00
 -1       351 2.90000E+02 1.00000E+01-7.50000E-01
 -1       352 3.00000E+02 1.00000E+01-1.50000E+00
 -1       353 3.00000E+02 1.00000E+01 0.00000E+00
 -1       354 3.00000E+02 7.50000E+00-1.50000E+00
 -1       355 2.95000E+02 1.00000E+01-1.50000E+00
 -1       356 3.00000E+02 7.50000E+00 0.00000E+00
 -1       357 2.95000E+02 1.00000E+01 0.00000E+00
 -1       358 3.00000E+02 1.00000E+01-7.50000E-01
 -1       359 3.10000E+02 1.00000E+01-1.50000E+00
 -1       360 3.10000E+02 1.00000E+01 0.00000E+00
 -1       361 3.10000E+02 7.50000E+00-1.50000E+00
 -1       362 3.05000E+02 1.00000E+01-1.50000E+00
 -1       363 3.10000E+02 7.50000E+00 0.00000E+00
 -1       364 3.05000E+02 1.00000E+01 0.00000E+00
 -1       365 3.10000E+02 1.00000E+01-7.50000E-01
 -1       366 3.25000E+02 1.00000E+01-1.50000E+00
 -1       367 3.25000E+02 1.00000E+01 0.00000E+00
 -1       368 3.25000E+02 7.50000E+00-1.50000E+00
 -1       369 3.17500E+02 1.00000E+01-1.50000E+00
 -1       370 3.25000E+02 7.50000E+00 0.00000E+00
 -1       371 3.17500E+02 1.00000E+01 0.00000E+00
 -1       372 3.25000E+02 1.00000E+01-7.50000E-01
 -1       373 3.50000E+02 1.00000E+01-1.50000E+00
 -1       374 3.50000E+02 1.00000E+01 0.00000E+00
 -1       375 3.50000E+02 7.50000E+00-1.50000E+00
 -1       376 3.37500E+02 1.00000E+01-1.50000E+00
 -1       377 3.50000E+02 7.50000E+00 0.00000E+00
 -1       378 3.37500E+02 1.00000E+01 0.00000E+00
 -1       379 3.50000E+02 1.00000E+01-7.50000E-01
 -1       380 3.75000E+02 1.00000E+01-1.50000E+00
 -1       381 3.75000E+02 1.00000E+01 0.00000E+00
 -1       382 3.75000E+02 7.50000E+00-1.50000E+00
 -1       383 3.62500E+02 1.00000E+01-1.50000E+00
 -1       384 3.75000E+02 7.50000E+00 0.00000E+00
 -1       385 3.62500E+02 1.00000E+01 0.00000E+00
 -1       386 3.75000E+02 1.00000E+01-7.50000E-01
 -1       387 4.00000E+02 1.00000E+01-1.50000E+00
 -1       388 4.00000E+02 1.00000E+01 0.00000E+00
 -1       389 4.00000E+02 7.50000E+00-1.50000E+00
 -1       390 3.87500E+02 1.00000E+01-1.50000E+00
 -1       391 4.00000E+02 7.50000E+00 0.00000E+00
 -1       392 3.87500E+02 1.00000E+01 0.00000E+00
 -1       393 4.00000E+02 1.00000E+01-7.50000E-01
 -1       394 2.50000E+01 1.50000E+01-1.50000E+00
 -1       395 0.00000E+00 1.50000E+01-1.50000E+00
 -1       396 2.50000E+01 1.50000E+01 0.00000E+00
 -1       397 0.00000E+00 1.50000E+01 0.00000E+00
 -1       398 2.50000E+01 1.25000E+01-1.50000E+00
 -1       399 1.25000E+01 1.50000E+01-1.50000E+00
 -1       400 0.00000E+00 1.25000E+01-1.50000E+00
 -1       401 2.50000E+01 1.25000E+01 0.00000E+00
 -1       402 1.25000E+01 1.50000E+01 0.00000E+00
 -1       403 0.00000E+00 1.25000E+01 0.00000E+00
 -1       404 2.50000E+01 1.50000E+01-7.50000E-01
 -1       405 0.00000E+00 1.50000E+01-7.50000E-01
 -1       406 5.00000E+01 1.50000E+01-1.50000E+00
 -1       407 5.00000E+01 1.50000E+01 0.00000E+00
 -1       408 5.00000E+01 1.25000E+01-1.50000E+00
 -1       409 3.75000E+01 1.50000E+01-1.50000E+00
 -1       410 5.00000E+01 1.25000E+01 0.00000E+00
 -1       411 3.75000E+01 1.50000E+01 0.00000E+00
 -1       412 5.00000E+01 1.50000E+01-7.50000E-01
 -1       413 7.50000E+01 1.50000E+01-1.50000E+00
 -1       414 7.50000E+01 1.50000E+01 0.00000E+00
 -1       415 7.50000E+01 1.25000E+01-1.50000E+00
 -1       416 6.25000E+01 1.50000E+01-1.50000E+00
 -1       417 7.50000E+01 1.25000E+01 0.00000E+00
 -1       418 6.25000E+01 1.50000E+01 0.00000E+00
 -1       419 7.50000E+01 1.50000E+01-7.50000E-01
 -1       420 1.00000E+02 1.50000E+01-1.50000E+00
 -1       421 1.00000E+02 1.50000E+01 0.00000E+00
 -1       422 1.00000E+02 1.25000E+01-1.50000E+00
 -1       423 8.75000E+01 1.50000E+01-1.50000E+00
 -1       424 1.00000E+02 1.25000E+01 0.00000E+00
 -1       425 8.75000E+01 1.50000E+01 0.00000E+00
 -1       426 1.00000E+02 1.50000E+01-7.50000E-01
 -1       427 1.25000E+02 1.50000E+01-1.50000E+00
 -1       428 1.25000E+02 1.50000E+01 0.00000E+00
 -1       429 1.25000E+02 1.25000E+01-1.50000E+00
 -1       430 1.12500E+02 1.50000E+01-1.50000E+00
 -1       431 1.25000E+02 1.25000E+01 0.00000E+00
 -1       432 1.12500E+02 1.50000E+01 0.00000E+00
 -1       433 1.25000E+02 1.50000E+01-7.50000E-01
 -1       434 1.50000E+02 1.50000E+01-1.50000E+00
 -1       435 1.50000E+02 1.50000E+01 0.00000E+00
 -1       436 1.50000E+02 1.25000E+01-1.50000E+00
 -1       437 1.37500E+02 1.50000E+01-1.50000E+00
 -1       438 1.50000E+02 1.25000E+01 0.00000E+00
 -1       439 1.37500E+02 1.50000E+01 0.00000E+00
 -1       440 1.50000E+02 1.50000E+01-7.50000E-01
 -1       441 1.75000E+02 1.50000E+01-1.50000E+00
 -1       442 1.75000E+02 1.50000E+01 0.00000E+00
 -1       443 1.75000E+02 1.25000E+01-1.50000E+00
 -1       444 1.62500E+02 1.50000E+01-1.50000E+00
 -1       445 1.75000E+02 1.25000E+01 0.00000E+00
 -1       446 1.62500E+02 1.50000E+01 0.00000E+00
 -1       447 1.75000E+02 1.50000E+01-7.50000E-01
 -1       448 1.90000E+02 1.50000E+01-1.50000E+00
 -1       449 1.90000E+02 1.50000E+01 0.00000E+00
 -1       450 1.90000E+02 1.25000E+01-1.50000E+00
 -1       451 1.82500E+02 1.50000E+01-1.50000E+00
 -1       452 1.90000E+02 1.25000E+01 0.00000E+00
 -1       453 1.82500E+02 1.50000E+01 0.00000E+00
 -1       454 1.90000E+02 1.50000E+01-7.50000E-01
 -1       455 2.00000E+02 1.50000E+01-1.50000E+00
 -1       456 2.00000E+02 1.50000E+01 0.00000E+00
 -1       457 2.00000E+02 1.25000E+01-1.50000E+00
 -1       458 1.95000E+02 1.50000E+01-1.50000E+00
 -1       459 2.00000E+02 1.25000E+01 0.00000E+00
 -1       460 1.95000E+02 1.50000E+01 0.00000E+00
 -1       461 2.00000E+02 1.50000E+01-7.50000E-01
 -1       462 2.10000E+02 1.50000E+01-1.50000E+00
 -1       463 2.10000E+02 1.50000E+01 0.00000E+00
 -1       464 2.10000E+02 1.25000E+01-1.50000E+00
 -1       465 2.05000E+02 1.50000E+01-1.50000E+00
 -1       466 2.10000E+02 1.25000E+01 0.00000E+00
 -1       467 2.05000E+02 1.50000E+01 0.00000E+00
 -1       468 2.10000E+02 1.50000E+01-7.50000E-01
 -1       469 2.25000E+02 1.50000E+01-1.50000E+00
 -1       470 2.25000E+02 1.50000E+01 0.00000E+00
 -1       471 2.25000E+02 1.25000E+01-1.50000E+00
 -1       472 2.17500E+02 1.50000E+01-1.50000E+00
 -1       473 2.25000E+02 1.25000E+01 0.00000E+00
 -1       474 2.17500E+02 1.50000E+01 0.00000E+00
 -1       475 2.25000E+02 1.50000E+01-7.50000E-01
 -1       476 2.50000E+02 1.50000E+01-1.50000E+00
 -1       477 2.50000E+02 1.50000E+01 0.00000E+00
 -1       478 2.50000E+02 1.25000E+01-1.50000E+00
 -1       479 2.37500E+02 1.50000E+01-1.50000E+00
 -1       480 2.50000E+02 1.25000E+01 0.00000E+00
 -1       481 2.37500E+02 1.50000E+01 0.00000E+00
 -1       482 2.50000E+02 1.50000E+01-7.50000E-01
 -1       483 2.75000E+02 1.50000E+01-1.50000E+00
 -1       484 2.75000E+02 1.50000E+01 0.00000E+00
 -1       485 2.75000E+02 1.25000E+01-1.50000E+00
 -1       486 2.62500E+02 1.50000E+01-1.50000E+00
 -1       487 2.75000E+02 1.25000E+01 0.00000E+00
 -1       488 2.62500E+02 1.50000E+01 0.00000E+00
 -1       489 2.75000E+02 1.50000E+01-7.50000E-01
 -1       490 2.90000E+02 1.50000E+01-1.50000E+00
 -1       491 2.90000E+02 1.50000E+01 0.00000E+00
 -1       492 2.90000E+02 1.25000E+01-1.50000E+00
 -1       493 2.82500E+02 1.50000E+01-1.50000E+00
 -1       494 2.90000E+02 1.25000E+01 0.00000E+00
 -1       495 2.82500E+02 1.50000E+01 0.00000E+00
 -1       496 2.90000E+02 1.50000E+01-7.50000E-01
 -1       497 3.00000E+02 1.50000E+01-1.50000E+00
 -1       498 3.00000E+02 1.50000E+01 0.00000E+00
 -1       499 3.00000E+02 1.25000E+01-1.50000E+00
 -1       500 2.95000E+02 1.50000E+01-1.50000E+00
 -1       501 3.00000E+02 1.25000E+01 0.00000E+00
 -1       502 2.95000E+02 1.50000E+01 0.00000E+00
 -1       503 3.00000E+02 1.50000E+01-7.50000E-01
 -1       504 3.10000E+02 1.50000E+01-1.50000E+00
 -1       505 3.10000E+02 1.50000E+01 0.00000E+00
 -1       506 3.10000E+02 1.25000E+01-1.50000E+00
 -1       507 3.05000E+02 1.50000E+01-1.50000E+00
 -1       508 3.10000E+02 1.25000E+01 0.00000E+00
 -1       509 3.05000E+02 1.50000E+01 0.00000E+00
 -1       510 3.10000E+02 1.50000E+01-7.50000E-01
 -1       511 3.25000E+02 1.50000E+01-1.50000E+00
 -1       512 3.25000E+02 1.50000E+01 0.00000E+00
 -1       513 3.25000E+02 1.25000E+01-1.50000E+00
 -1       514 3.17500E+02 1.50000E+01-1.50000E+00
 -1       515 3.25000E+02 1.25000E+01 0.00000E+00
 -1       516 3.17500E+02 1.50000E+01 0.00000E+00
 -1       517 3.25000E+02 1.50000E+01-7.50000E-01
 -1       518 3.50000E+02 1.50000E+01-1.50000E+00
 -1       519 3.50000E+02 1.50000E+01 0.00000E+00
 -1       520 3.50000E+02 1.25000E+01-1.50000E+00
 -1       521 3.37500E+02 1.50000E+01-1.50000E+00
 -1       522 3.50000E+02 1.25000E+01 0.00000E+00
 -1       523 3.37500E+02 1.50000E+01 0.00000E+00
 -1       524 3.50000E+02 1.50000E+01-7.50000E-01
 -1       525 3.75000E+02 1.50000E+01-1.50000E+00
 -1       526 3.75000E+02 1.50000E+01 0.00000E+00
 -1       527 3.75000E+02 1.25000E+01-1.50000E+00
 -1       528 3.62500E+02 1.50000E+01-1.50000E+00
 -1       529 3.75000E+02 1.25000E+01 0.00000E+00
 -1       530 3.62500E+02 1.50000E+01 0.00000E+00
 -1       531 3.75000E+02 1.50000E+01-7.50000E-01
 -1       532 4.00000E+02 1.50000E+01-1.50000E+00
 -1       533 4.00000E+02 1.50000E+01 0.00000E+00
 -1       534 4.00000E+02 1.25000E+01-1.50000E+00
 -1       535 3.87500E+02 1.50000E+01-1.50000E+00
 -1       536 4.00000E+02 1.25000E+01 0.00000E+00
 -1       537 3.87500E+02 1.50000E+01 0.00000E+00
 -1       538 4.00000E+02 1.50000E+01-7.50000E-01
 -1       539 2.50000E+01 2.00000E+01-1.50000E+00
 -1       540 0.00000E+00 2.00000E+01-1.50000E+00
 -1       541 2.50000E+01 2.00000E+01 0.00000E+00
 -1       542 0.00000E+00 2.00000E+01 0.00000E+00
 -1       543 2.50000E+01 1.75000E+01-1.50000E+00
 -1       544 1.25000E+01 2.00000E+01-1.50000E+00
 -1       545 0.00000E+00 1.75000E+01-1.50000E+00
 -1       546 2.50000E+01 1.75000E+01 0.00000E+00
 -1       547 1.25000E+01 2.00000E+01 0.00000E+00
 -1       548 0.00000E+00 1.75000E+01 0.00000E+00
 -1       549 2.50000E+01 2.00000E+01-7.50000E-01
 -1       550 0.00000E+00 2.00000E+01-7.50000E-01
 -1       551 5.00000E+01 2.00000E+01-1.50000E+00
 -1       552 5.00000E+01 2.00000E+01 0.00000E+00
 -1       553 5.00000E+01 1.75000E+01-1.50000E+00
 -1       554 3.75000E+01 2.00000E+01-1.50000E+00
 -1       555 5.00000E+01 1.75000E+01 0.00000E+00
 -1       556 3.75000E+01 2.00000E+01 0.00000E+00
 -1       557 5.00000E+01 2.00000E+01-7.50000E-01
 -1       558 7.50000E+01 2.00000E+01-1.50000E+00
 -1       559 7.50000E+01 2.00000E+01 0.00000E+00
 -1       560 7.50000E+01 1.75000E+01-1.50000E+00
 -1       561 6.25000E+01 2.00000E+01-1.50000E+00
 -1       562 7.50000E+01 1.75000E+01 0.00000E+00
 -1       563 6.25000E+01 2.00000E+01 0.00000E+00
 -1       564 7.50000E+01 2.00000E+01-7.50000E-01
 -1       565 1.00000E+02 2.00000E+01-1.50000E+00
 -1       566 1.00000E+02 2.00000E+01 0.00000E+00
 -1       567 1.00000E+02 1.75000E+01-1.50000E+00
 -1       568 8.75000E+01 2.00000E+01-1.50000E+00
 -1       569 1.00000E+02 1.75000E+01 0.00000E+00
 -1       570 8.75000E+01 2.00000E+01 0.00000E+00
 -1       571 1.00000E+02 2.00000E+01-7.50000E-01
 -1       572 1.25000E+02 2.00000E+01-1.50000E+00
 -1       573 1.25000E+02 2.00000E+01 0.00000E+00
 -1       574 1.25000E+02 1.75000E+01-1.50000E+00
 -1       575 1.12500E+02 2.00000E+01-1.50000E+00
 -1       576 1.25000E+02 1.75000E+01 0.00000E+00
 -1       577 1.12500E+02 2.00000E+01 0.00000E+00
 -1       578 1.25000E+02 2.00000E+01-7.50000E-01
 -1       579 1.50000E+02 2.00000E+01-1.50000E+00
 -1       580 1.50000E+02 2.00000E+01 0.00000E+00
 -1       581 1.50000E+02 1.75000E+01-1.50000E+00
 -1       582 1.37500E+02 2.00000E+01-1.50000E+00