
 displacements (vx,vy,vz) for set SENSOR and time  0.1562500E-03

      2895 -1.996991E-02 -3.055571E-02 -3.443319E-02

 displacements (vx,vy,vz) for set SENSOR and time  0.3125000E-03

      2895 -1.167096E-01 -1.753192E-01 -6.927431E-02

 displacements (vx,vy,vz) for set SENSOR and time  0.4687500E-03

      2895 -2.192710E-01 -3.145118E-01  4.699195E-01

 displacements (vx,vy,vz) for set SENSOR and time  0.6250000E-03

      2895 -2.973374E-01 -3.935103E-01  1.962703E+00

 displacements (vx,vy,vz) for set SENSOR and time  0.7812500E-03

      2895 -3.457134E-01 -4.049308E-01  4.385767E+00

 displacements (vx,vy,vz) for set SENSOR and time  0.9375000E-03

      2895 -3.649152E-01 -3.581899E-01  7.383045E+00

 displacements (vx,vy,vz) for set SENSOR and time  0.1093750E-02

      2895 -3.603207E-01 -2.749547E-01  1.042762E+01

 displacements (vx,vy,vz) for set SENSOR and time  0.1250000E-02

      2895 -3.400936E-01 -1.822790E-01  1.303065E+01

 displacements (vx,vy,vz) for set SENSOR and time  0.1406250E-02

      2895 -3.124830E-01 -1.061416E-01  1.490197E+01

 displacements (vx,vy,vz) for set SENSOR and time  0.1562500E-02

      2895 -2.833046E-01 -6.696700E-02  1.599924E+01

 displacements (vx,vy,vz) for set SENSOR and time  0.1718750E-02

      2895 -2.544206E-01 -7.713178E-02  1.646206E+01

 displacements (vx,vy,vz) for set SENSOR and time  0.1875000E-02

      2895 -2.238090E-01 -1.395329E-01  1.648405E+01

 displacements (vx,vy,vz) for set SENSOR and time  0.2031250E-02

      2895 -1.873464E-01 -2.465519E-01  1.620044E+01

 displacements (vx,vy,vz) for set SENSOR and time  0.2187500E-02

      2895 -1.418219E-01 -3.798431E-01  1.565153E+01

 displacements (vx,vy,vz) for set SENSOR and time  0.2343750E-02

      2895 -8.810767E-02 -5.123199E-01  1.483389E+01

 displacements (vx,vy,vz) for set SENSOR and time  0.2500000E-02

      2895 -3.310953E-02 -6.135465E-01  1.379886E+01

 displacements (vx,vy,vz) for set SENSOR and time  0.2656250E-02

      2895  1.068315E-02 -6.582328E-01  1.272945E+01

 displacements (vx,vy,vz) for set SENSOR and time  0.2812500E-02

      2895  2.845990E-02 -6.353895E-01  1.193767E+01

 displacements (vx,vy,vz) for set SENSOR and time  0.2968750E-02

      2895  8.421184E-03 -5.542648E-01  1.176774E+01

 displacements (vx,vy,vz) for set SENSOR and time  0.3125000E-02

      2895 -5.266155E-02 -4.435862E-01  1.244454E+01

 displacements (vx,vy,vz) for set SENSOR and time  0.3281250E-02

      2895 -1.460116E-01 -3.430796E-01  1.394141E+01

 displacements (vx,vy,vz) for set SENSOR and time  0.3437500E-02

      2895 -2.514369E-01 -2.897399E-01  1.593956E+01

 displacements (vx,vy,vz) for set SENSOR and time  0.3593750E-02

      2895 -3.424334E-01 -3.041417E-01  1.791122E+01

 displacements (vx,vy,vz) for set SENSOR and time  0.3750000E-02

      2895 -3.944094E-01 -3.826298E-01  1.930097E+01

 displacements (vx,vy,vz) for set SENSOR and time  0.3906250E-02

      2895 -3.930882E-01 -4.990027E-01  1.973188E+01

 displacements (vx,vy,vz) for set SENSOR and time  0.4062500E-02

      2895 -3.397047E-01 -6.151977E-01  1.914864E+01

 displacements (vx,vy,vz) for set SENSOR and time  0.4218750E-02

      2895 -2.506265E-01 -6.964392E-01  1.783627E+01

 displacements (vx,vy,vz) for set SENSOR and time  0.4375000E-02

      2895 -1.512095E-01 -7.242999E-01  1.630767E+01

 displacements (vx,vy,vz) for set SENSOR and time  0.4531250E-02

      2895 -6.615182E-02 -7.021582E-01  1.510988E+01

 displacements (vx,vy,vz) for set SENSOR and time  0.4687500E-02

      2895 -1.022455E-02 -6.511235E-01  1.463172E+01

 displacements (vx,vy,vz) for set SENSOR and time  0.4843750E-02

      2895  1.674996E-02 -5.988783E-01  1.499044E+01

 displacements (vx,vy,vz) for set SENSOR and time  0.5000000E-02

      2895  2.853714E-02 -5.669492E-01  1.603507E+01

 displacements (vx,vy,vz) for set SENSOR and time  0.5156250E-02

      2895  4.534370E-02 -5.622513E-01  1.745110E+01

 displacements (vx,vy,vz) for set SENSOR and time  0.5312500E-02

      2895  8.400287E-02 -5.763350E-01  1.890852E+01

 displacements (vx,vy,vz) for set SENSOR and time  0.5468750E-02

      2895  1.497598E-01 -5.919160E-01  2.018315E+01

 displacements (vx,vy,vz) for set SENSOR and time  0.5625000E-02

      2895  2.331754E-01 -5.929235E-01  2.120236E+01

 displacements (vx,vy,vz) for set SENSOR and time  0.5781250E-02

      2895  3.133672E-01 -5.730013E-01  2.200808E+01

 displacements (vx,vy,vz) for set SENSOR and time  0.5937500E-02

      2895  3.660268E-01 -5.385920E-01  2.267096E+01

 displacements (vx,vy,vz) for set SENSOR and time  0.6093750E-02

      2895  3.726766E-01 -5.056121E-01  2.320994E+01

 displacements (vx,vy,vz) for set SENSOR and time  0.6250000E-02

      2895  3.273192E-01 -4.917671E-01  2.356254E+01

 displacements (vx,vy,vz) for set SENSOR and time  0.6406250E-02

      2895  2.380368E-01 -5.083197E-01  2.362009E+01

 displacements (vx,vy,vz) for set SENSOR and time  0.6562500E-02

      2895  1.234640E-01 -5.549569E-01  2.330494E+01

 displacements (vx,vy,vz) for set SENSOR and time  0.6718750E-02

      2895  6.203277E-03 -6.196482E-01  2.264401E+01

 displacements (vx,vy,vz) for set SENSOR and time  0.6875000E-02

      2895 -9.378326E-02 -6.830786E-01  2.179442E+01

 displacements (vx,vy,vz) for set SENSOR and time  0.7031250E-02

      2895 -1.633285E-01 -7.254865E-01  2.100211E+01

 displacements (vx,vy,vz) for set SENSOR and time  0.7187500E-02

      2895 -1.968918E-01 -7.331819E-01  2.050910E+01

 displacements (vx,vy,vz) for set SENSOR and time  0.7343750E-02

      2895 -1.949254E-01 -7.026222E-01  2.045247E+01

 displacements (vx,vy,vz) for set SENSOR and time  0.7500000E-02

      2895 -1.615769E-01 -6.411403E-01  2.080332E+01

 displacements (vx,vy,vz) for set SENSOR and time  0.7656250E-02

      2895 -1.032879E-01 -5.645883E-01  2.137622E+01

 displacements (vx,vy,vz) for set SENSOR and time  0.7812500E-02

      2895 -2.872337E-02 -4.928905E-01  2.190620E+01

 displacements (vx,vy,vz) for set SENSOR and time  0.7968750E-02

      2895  5.078320E-02 -4.447529E-01  2.215899E+01

 displacements (vx,vy,vz) for set SENSOR and time  0.8125000E-02

      2895  1.216584E-01 -4.327455E-01  2.202539E+01

 displacements (vx,vy,vz) for set SENSOR and time  0.8281250E-02

      2895  1.703237E-01 -4.598642E-01  2.155870E+01

 displacements (vx,vy,vz) for set SENSOR and time  0.8437500E-02

      2895  1.869489E-01 -5.184818E-01  2.094161E+01

 displacements (vx,vy,vz) for set SENSOR and time  0.8593750E-02

      2895  1.691889E-01 -5.921888E-01  2.040104E+01

 displacements (vx,vy,vz) for set SENSOR and time  0.8750000E-02

      2895  1.238811E-01 -6.603023E-01  2.011176E+01

 displacements (vx,vy,vz) for set SENSOR and time  0.8906250E-02

      2895  6.533128E-02 -7.039093E-01  2.013186E+01

 displacements (vx,vy,vz) for set SENSOR and time  0.9062500E-02

      2895  1.034894E-02 -7.115849E-01  2.039518E+01

 displacements (vx,vy,vz) for set SENSOR and time  0.9218750E-02

      2895 -2.814978E-02 -6.828062E-01  2.075736E+01

 displacements (vx,vy,vz) for set SENSOR and time  0.9375000E-02

      2895 -4.625061E-02 -6.277993E-01  2.106792E+01

 displacements (vx,vy,vz) for set SENSOR and time  0.9531250E-02

      2895 -5.051226E-02 -5.638910E-01  2.123103E+01

 displacements (vx,vy,vz) for set SENSOR and time  0.9687500E-02

      2895 -5.497731E-02 -5.098182E-01  2.122721E+01

 displacements (vx,vy,vz) for set SENSOR and time  0.9843750E-02

      2895 -7.487845E-02 -4.802020E-01  2.109093E+01

 displacements (vx,vy,vz) for set SENSOR and time  0.1000000E-01

      2895 -1.196867E-01 -4.821367E-01  2.086212E+01

 displacements (vx,vy,vz) for set SENSOR and time  0.1015625E-01

      2895 -1.884505E-01 -5.147111E-01  2.054252E+01

 displacements (vx,vy,vz) for set SENSOR and time  0.1031250E-01

      2895 -2.693621E-01 -5.708819E-01  2.008336E+01

 displacements (vx,vy,vz) for set SENSOR and time  0.1046875E-01

      2895 -3.436551E-01 -6.402127E-01  1.941257E+01

 displacements (vx,vy,vz) for set SENSOR and time  0.1062500E-01

      2895 -3.921447E-01 -7.110300E-01  1.848731E+01

 displacements (vx,vy,vz) for set SENSOR and time  0.1078125E-01

      2895 -4.017545E-01 -7.714327E-01  1.734289E+01

 displacements (vx,vy,vz) for set SENSOR and time  0.1093750E-01

      2895 -3.695921E-01 -8.097116E-01  1.610914E+01

 displacements (vx,vy,vz) for set SENSOR and time  0.1109375E-01

      2895 -3.033298E-01 -8.153339E-01  1.498125E+01

 displacements (vx,vy,vz) for set SENSOR and time  0.1125000E-01

      2895 -2.181965E-01 -7.812848E-01  1.415402E+01

 displacements (vx,vy,vz) for set SENSOR and time  0.1140625E-01

      2895 -1.320842E-01 -7.074099E-01  1.374744E+01

 displacements (vx,vy,vz) for set SENSOR and time  0.1156250E-01

      2895 -6.067478E-02 -6.031770E-01  1.375625E+01

 displacements (vx,vy,vz) for set SENSOR and time  0.1171875E-01

      2895 -1.407946E-02 -4.878135E-01  1.404578E+01

 displacements (vx,vy,vz) for set SENSOR and time  0.1187500E-01

      2895  4.399574E-03 -3.865517E-01  1.439588E+01

 displacements (vx,vy,vz) for set SENSOR and time  0.1203125E-01

      2895 -2.368473E-03 -3.234755E-01  1.457389E+01

 displacements (vx,vy,vz) for set SENSOR and time  0.1218750E-01

      2895 -2.713426E-02 -3.133569E-01  1.440681E+01

 displacements (vx,vy,vz) for set SENSOR and time  0.1234375E-01

      2895 -6.048103E-02 -3.558376E-01  1.382636E+01

 displacements (vx,vy,vz) for set SENSOR and time  0.1250000E-01

      2895 -9.299646E-02 -4.347106E-01  1.287532E+01

 displacements (vx,vy,vz) for set SENSOR and time  0.1265625E-01

      2895 -1.172054E-01 -5.230305E-01  1.168150E+01

 displacements (vx,vy,vz) for set SENSOR and time  0.1281250E-01

      2895 -1.291290E-01 -5.922515E-01  1.041767E+01

 displacements (vx,vy,vz) for set SENSOR and time  0.1296875E-01

      2895 -1.292073E-01 -6.217784E-01  9.265872E+00

 displacements (vx,vy,vz) for set SENSOR and time  0.1312500E-01

      2895 -1.221848E-01 -6.051329E-01  8.395561E+00

 displacements (vx,vy,vz) for set SENSOR and time  0.1328125E-01

      2895 -1.156382E-01 -5.504873E-01  7.951614E+00

 displacements (vx,vy,vz) for set SENSOR and time  0.1343750E-01

      2895 -1.172211E-01 -4.758343E-01  8.041190E+00

 displacements (vx,vy,vz) for set SENSOR and time  0.1359375E-01

      2895 -1.312887E-01 -4.013278E-01  8.710508E+00

 displacements (vx,vy,vz) for set SENSOR and time  0.1375000E-01

      2895 -1.560772E-01 -3.422692E-01  9.913953E+00

 displacements (vx,vy,vz) for set SENSOR and time  0.1390625E-01

      2895 -1.827109E-01 -3.054772E-01  1.149072E+01

 displacements (vx,vy,vz) for set SENSOR and time  0.1406250E-01

      2895 -1.968585E-01 -2.898526E-01  1.316992E+01

 displacements (vx,vy,vz) for set SENSOR and time  0.1421875E-01

      2895 -1.829293E-01 -2.898928E-01  1.461814E+01

 displacements (vx,vy,vz) for set SENSOR and time  0.1437500E-01

      2895 -1.296513E-01 -2.997521E-01  1.552529E+01

 displacements (vx,vy,vz) for set SENSOR and time  0.1453125E-01

      2895 -3.513235E-02 -3.156682E-01  1.570351E+01

 displacements (vx,vy,vz) for set SENSOR and time  0.1468750E-01

      2895  9.056137E-02 -3.359004E-01  1.516072E+01

 displacements (vx,vy,vz) for set SENSOR and time  0.1484375E-01

      2895  2.265774E-01 -3.589147E-01  1.411444E+01

 displacements (vx,vy,vz) for set SENSOR and time  0.1500000E-01

      2895  3.462112E-01 -3.815110E-01  1.293174E+01

 displacements (vx,vy,vz) for set SENSOR and time  0.1515625E-01

      2895  4.242482E-01 -3.984414E-01  1.201166E+01

 displacements (vx,vy,vz) for set SENSOR and time  0.1531250E-01

      2895  4.444000E-01 -4.040126E-01  1.165210E+01

 displacements (vx,vy,vz) for set SENSOR and time  0.1546875E-01

      2895  4.043492E-01 -3.948609E-01  1.195239E+01

 displacements (vx,vy,vz) for set SENSOR and time  0.1562500E-01

      2895  3.166239E-01 -3.723139E-01  1.278991E+01

 displacements (vx,vy,vz) for set SENSOR and time  0.1578125E-01

      2895  2.048965E-01 -3.429195E-01  1.387931E+01

 displacements (vx,vy,vz) for set SENSOR and time  0.1593750E-01

      2895  9.684570E-02 -3.166838E-01  1.488848E+01

 displacements (vx,vy,vz) for set SENSOR and time  0.1609375E-01

      2895  1.591174E-02 -3.037503E-01  1.556260E+01

 displacements (vx,vy,vz) for set SENSOR and time  0.1625000E-01

      2895 -2.534250E-02 -3.109947E-01  1.580574E+01

 displacements (vx,vy,vz) for set SENSOR and time  0.1640625E-01

      2895 -2.810436E-02 -3.399530E-01  1.569046E+01

 displacements (vx,vy,vz) for set SENSOR and time  0.1656250E-01

      2895 -5.570913E-03 -3.867368E-01  1.539815E+01

 displacements (vx,vy,vz) for set SENSOR and time  0.1671875E-01

      2895  2.265257E-02 -4.436140E-01  1.512318E+01

 displacements (vx,vy,vz) for set SENSOR and time  0.1687500E-01

      2895  3.794809E-02 -5.012856E-01  1.498730E+01

 displacements (vx,vy,vz) for set SENSOR and time  0.1703125E-01

      2895  2.924961E-02 -5.508675E-01  1.500218E+01

 displacements (vx,vy,vz) for set SENSOR and time  0.1718750E-01

      2895 -3.456620E-03 -5.851012E-01  1.509208E+01

 displacements (vx,vy,vz) for set SENSOR and time  0.1734375E-01

      2895 -4.975368E-02 -5.989470E-01  1.515915E+01

 displacements (vx,vy,vz) for set SENSOR and time  0.1750000E-01

      2895 -9.308908E-02 -5.900526E-01  1.515386E+01

 displacements (vx,vy,vz) for set SENSOR and time  0.1765625E-01

      2895 -1.170270E-01 -5.594281E-01  1.511278E+01

 displacements (vx,vy,vz) for set SENSOR and time  0.1781250E-01

      2895 -1.111674E-01 -5.121605E-01  1.514427E+01

 displacements (vx,vy,vz) for set SENSOR and time  0.1796875E-01

      2895 -7.473128E-02 -4.575506E-01  1.537012E+01

 displacements (vx,vy,vz) for set SENSOR and time  0.1812500E-01

      2895 -1.678899E-02 -4.080068E-01  1.585372E+01

 displacements (vx,vy,vz) for set SENSOR and time  0.1828125E-01

      2895  4.664966E-02 -3.764935E-01  1.655260E+01

 displacements (vx,vy,vz) for set SENSOR and time  0.1843750E-01

      2895  9.745147E-02 -3.730792E-01  1.732103E+01

 displacements (vx,vy,vz) for set SENSOR and time  0.1859375E-01

      2895  1.204024E-01 -4.017354E-01  1.796366E+01

 displacements (vx,vy,vz) for set SENSOR and time  0.1875000E-01

      2895  1.069940E-01 -4.586375E-01  1.831610E+01

 displacements (vx,vy,vz) for set SENSOR and time  0.1890625E-01

      2895  5.711779E-02 -5.327244E-01  1.831487E+01

 displacements (vx,vy,vz) for set SENSOR and time  0.1906250E-01

      2895 -2.140695E-02 -6.084057E-01  1.802402E+01

 displacements (vx,vy,vz) for set SENSOR and time  0.1921875E-01

      2895 -1.149741E-01 -6.695042E-01  1.760586E+01

 displacements (vx,vy,vz) for set SENSOR and time  0.1937500E-01

      2895 -2.072604E-01 -7.031535E-01  1.724976E+01

 displacements (vx,vy,vz) for set SENSOR and time  0.1953125E-01

      2895 -2.825242E-01 -7.025552E-01  1.709139E+01

 displacements (vx,vy,vz) for set SENSOR and time  0.1968750E-01

      2895 -3.285905E-01 -6.680692E-01  1.715914E+01

 displacements (vx,vy,vz) for set SENSOR and time  0.1984375E-01

      2895 -3.390990E-01 -6.067168E-01  1.737020E+01

 displacements (vx,vy,vz) for set SENSOR and time  0.2000000E-01

      2895 -3.146346E-01 -5.305271E-01  1.757571E+01

 displacements (vx,vy,vz) for set SENSOR and time  0.2015625E-01

      2895 -2.624186E-01 -4.541795E-01  1.763187E+01

 displacements (vx,vy,vz) for set SENSOR and time  0.2031250E-01

      2895 -1.944287E-01 -3.922380E-01  1.746328E+01

 displacements (vx,vy,vz) for set SENSOR and time  0.2046875E-01

      2895 -1.242133E-01 -3.561964E-01  1.709021E+01

 displacements (vx,vy,vz) for set SENSOR and time  0.2062500E-01

      2895 -6.316070E-02 -3.516985E-01  1.660966E+01

 displacements (vx,vy,vz) for set SENSOR and time  0.2078125E-01

      2895 -1.735536E-02 -3.765909E-01  1.614244E+01

 displacements (vx,vy,vz) for set SENSOR and time  0.2093750E-01

      2895  1.384657E-02 -4.206430E-01  1.577328E+01

 displacements (vx,vy,vz) for set SENSOR and time  0.2109375E-01

      2895  3.687820E-02 -4.675502E-01  1.551297E+01

 displacements (vx,vy,vz) for set SENSOR and time  0.2125000E-01

      2895  6.086834E-02 -4.991436E-01  1.529927E+01

 displacements (vx,vy,vz) for set SENSOR and time  0.2140625E-01

      2895  9.348833E-02 -5.007826E-01  1.503395E+01

 displacements (vx,vy,vz) for set SENSOR and time  0.2156250E-01

      2895  1.373479E-01 -4.661722E-01  1.463630E+01

 displacements (vx,vy,vz) for set SENSOR and time  0.2171875E-01

      2895  1.884150E-01 -3.997504E-01  1.408619E+01

 displacements (vx,vy,vz) for set SENSOR and time  0.2187500E-01

      2895  2.371568E-01 -3.155291E-01  1.343635E+01

 displacements (vx,vy,vz) for set SENSOR and time  0.2203125E-01

      2895  2.719942E-01 -2.325940E-01  1.278854E+01

 displacements (vx,vy,vz) for set SENSOR and time  0.2218750E-01

      2895  2.836972E-01 -1.688294E-01  1.224625E+01

 displacements (vx,vy,vz) for set SENSOR and time  0.2234375E-01

      2895  2.689700E-01 -1.351939E-01  1.186667E+01

 displacements (vx,vy,vz) for set SENSOR and time  0.2250000E-01

      2895  2.318352E-01 -1.326651E-01  1.163449E+01

 displacements (vx,vy,vz) for set SENSOR and time  0.2265625E-01

      2895  1.823647E-01 -1.528643E-01  1.146869E+01

 displacements (vx,vy,vz) for set SENSOR and time  0.2281250E-01

      2895  1.333890E-01 -1.818661E-01  1.125789E+01

 displacements (vx,vy,vz) for set SENSOR and time  0.2296875E-01

      2895  9.656404E-02 -2.054690E-01  1.090695E+01

 displacements (vx,vy,vz) for set SENSOR and time  0.2312500E-01

      2895  7.928499E-02 -2.137811E-01  1.037340E+01

 displacements (vx,vy,vz) for set SENSOR and time  0.2328125E-01

      2895  8.341627E-02 -2.034934E-01  9.678460E+00

 displacements (vx,vy,vz) for set SENSOR and time  0.2343750E-01

      2895  1.059519E-01 -1.773602E-01  8.890022E+00

 displacements (vx,vy,vz) for set SENSOR and time  0.2359375E-01

      2895  1.409511E-01 -1.416148E-01  8.087738E+00

 displacements (vx,vy,vz) for set SENSOR and time  0.2375000E-01

      2895  1.817423E-01 -1.027738E-01  7.327487E+00

 displacements (vx,vy,vz) for set SENSOR and time  0.2390625E-01

      2895  2.225454E-01 -6.526899E-02  6.620664E+00

 displacements (vx,vy,vz) for set SENSOR and time  0.2406250E-01

      2895  2.591641E-01 -3.070639E-02  5.935207E+00

 displacements (vx,vy,vz) for set SENSOR and time  0.2421875E-01

      2895  2.889265E-01  1.324313E-03  5.214404E+00

 displacements (vx,vy,vz) for set SENSOR and time  0.2437500E-01

      2895  3.103332E-01  3.164448E-02  4.402075E+00

 displacements (vx,vy,vz) for set SENSOR and time  0.2453125E-01

      2895  3.228084E-01  6.005174E-02  3.461904E+00

 displacements (vx,vy,vz) for set SENSOR and time  0.2468750E-01

      2895  3.266439E-01  8.476230E-02  2.384111E+00

 displacements (vx,vy,vz) for set SENSOR and time  0.2484375E-01

      2895  3.229356E-01  1.029203E-01  1.180764E+00

 displacements (vx,vy,vz) for set SENSOR and time  0.2500000E-01

      2895  3.132279E-01  1.118695E-01 -1.230271E-01

 displacements (vx,vy,vz) for set SENSOR and time  0.2515625E-01

      2895  2.987820E-01  1.106089E-01 -1.494094E+00

 displacements (vx,vy,vz) for set SENSOR and time  0.2531250E-01

      2895  2.797184E-01  1.008475E-01 -2.889092E+00

 displacements (vx,vy,vz) for set SENSOR and time  0.2546875E-01

      2895  2.545423E-01  8.724978E-02 -4.248845E+00

 displacements (vx,vy,vz) for set SENSOR and time  0.2562500E-01

      2895  2.205213E-01  7.672145E-02 -5.497322E+00

 displacements (vx,vy,vz) for set SENSOR and time  0.2578125E-01

      2895  1.750308E-01  7.682962E-02 -6.552597E+00

 displacements (vx,vy,vz) for set SENSOR and time  0.2593750E-01

      2895  1.174599E-01  9.368660E-02 -7.350731E+00

 displacements (vx,vy,vz) for set SENSOR and time  0.2609375E-01

      2895  5.085832E-02  1.298286E-01 -7.874837E+00

 displacements (vx,vy,vz) for set SENSOR and time  0.2625000E-01

      2895 -1.755277E-02  1.827566E-01 -8.175564E+00

 displacements (vx,vy,vz) for set SENSOR and time  0.2640625E-01

      2895 -7.750470E-02  2.447781E-01 -8.369755E+00

 displacements (vx,vy,vz) for set SENSOR and time  0.2656250E-01

      2895 -1.182707E-01  3.045085E-01 -8.612023E+00

 displacements (vx,vy,vz) for set SENSOR and time  0.2671875E-01

      2895 -1.318855E-01  3.498665E-01 -9.046052E+00

 displacements (vx,vy,vz) for set SENSOR and time  0.2687500E-01

      2895 -1.158125E-01  3.717761E-01 -9.753059E+00

 displacements (vx,vy,vz) for set SENSOR and time  0.2703125E-01

      2895 -7.402351E-02  3.673472E-01 -1.071837E+01

 displacements (vx,vy,vz) for set SENSOR and time  0.2718750E-01

      2895 -1.604014E-02  3.412945E-01 -1.183131E+01

 displacements (vx,vy,vz) for set SENSOR and time  0.2734375E-01

      2895  4.573473E-02  3.048784E-01 -1.292037E+01

 displacements (vx,vy,vz) for set SENSOR and time  0.2750000E-01

      2895  9.943173E-02  2.725631E-01 -1.381088E+01

 displacements (vx,vy,vz) for set SENSOR and time  0.2765625E-01

      2895  1.366822E-01  2.575035E-01 -1.438274E+01

 displacements (vx,vy,vz) for set SENSOR and time  0.2781250E-01

      2895  1.541921E-01  2.674884E-01 -1.460588E+01

 displacements (vx,vy,vz) for set SENSOR and time  0.2796875E-01

      2895  1.535699E-01  3.028034E-01 -1.454077E+01

 displacements (vx,vy,vz) for set SENSOR and time  0.2812500E-01

      2895  1.397314E-01  3.566923E-01 -1.430659E+01

 displacements (vx,vy,vz) for set SENSOR and time  0.2828125E-01

      2895  1.186702E-01  4.180327E-01 -1.403274E+01

 displacements (vx,vy,vz) for set SENSOR and time  0.2843750E-01

      2895  9.549318E-02  4.749999E-01 -1.381549E+01

 displacements (vx,vy,vz) for set SENSOR and time  0.2859375E-01

      2895  7.335934E-02  5.182487E-01 -1.369679E+01

 displacements (vx,vy,vz) for set SENSOR and time  0.2875000E-01

      2895  5.349945E-02  5.425816E-01 -1.367096E+01

 displacements (vx,vy,vz) for set SENSOR and time  0.2890625E-01

      2895  3.603506E-02  5.469299E-01 -1.371113E+01

 displacements (vx,vy,vz) for set SENSOR and time  0.2906250E-01

      2895  2.105456E-02  5.332747E-01 -1.379904E+01

 displacements (vx,vy,vz) for set SENSOR and time  0.2921875E-01

      2895  9.405287E-03  5.054820E-01 -1.394197E+01

 displacements (vx,vy,vz) for set SENSOR and time  0.2937500E-01

      2895  2.885278E-03  4.687520E-01 -1.416865E+01

 displacements (vx,vy,vz) for set SENSOR and time  0.2953125E-01

      2895  3.831528E-03  4.297167E-01 -1.450796E+01

 displacements (vx,vy,vz) for set SENSOR and time  0.2968750E-01

      2895  1.436169E-02  3.965662E-01 -1.496360E+01

 displacements (vx,vy,vz) for set SENSOR and time  0.2984375E-01

      2895  3.563278E-02  3.783837E-01 -1.549968E+01

 displacements (vx,vy,vz) for set SENSOR and time  0.3000000E-01

      2895  6.741693E-02  3.832509E-01 -1.604662E+01

 displacements (vx,vy,vz) for set SENSOR and time  0.3015625E-01

      2895  1.081152E-01  4.154851E-01 -1.652569E+01

 displacements (vx,vy,vz) for set SENSOR and time  0.3031250E-01

      2895  1.551320E-01  4.731138E-01 -1.688115E+01

 displacements (vx,vy,vz) for set SENSOR and time  0.3046875E-01

      2895  2.054017E-01  5.469471E-01 -1.710415E+01

 displacements (vx,vy,vz) for set SENSOR and time  0.3062500E-01

      2895  2.558420E-01  6.221451E-01 -1.723697E+01

 displacements (vx,vy,vz) for set SENSOR and time  0.3078125E-01

      2895  3.035989E-01  6.821623E-01 -1.735492E+01

 displacements (vx,vy,vz) for set SENSOR and time  0.3093750E-01

      2895  3.460850E-01  7.138465E-01 -1.753440E+01

 displacements (vx,vy,vz) for set SENSOR and time  0.3109375E-01

      2895  3.809331E-01  7.118211E-01 -1.782144E+01

 displacements (vx,vy,vz) for set SENSOR and time  0.3125000E-01

      2895  4.060223E-01  6.804177E-01 -1.821456E+01

 displacements (vx,vy,vz) for set SENSOR and time  0.3140625E-01

      2895  4.196817E-01  6.323308E-01 -1.866856E+01

 displacements (vx,vy,vz) for set SENSOR and time  0.3156250E-01

      2895  4.210533E-01  5.844382E-01 -1.911611E+01

 displacements (vx,vy,vz) for set SENSOR and time  0.3171875E-01

      2895  4.104738E-01  5.523233E-01 -1.949599E+01

 displacements (vx,vy,vz) for set SENSOR and time  0.3187500E-01

      2895  3.896770E-01  5.454772E-01 -1.977523E+01

 displacements (vx,vy,vz) for set SENSOR and time  0.3203125E-01

      2895  3.616615E-01  5.648041E-01 -1.995630E+01

 displacements (vx,vy,vz) for set SENSOR and time  0.3218750E-01

      2895  3.302003E-01  6.030944E-01 -2.006833E+01

 displacements (vx,vy,vz) for set SENSOR and time  0.3234375E-01

      2895  2.991287E-01  6.480132E-01 -2.014895E+01

 displacements (vx,vy,vz) for set SENSOR and time  0.3250000E-01

      2895  2.716561E-01  6.863282E-01 -2.022615E+01

 displacements (vx,vy,vz) for set SENSOR and time  0.3265625E-01

      2895  2.499446E-01  7.078538E-01 -2.030838E+01

 displacements (vx,vy,vz) for set SENSOR and time  0.3281250E-01

      2895  2.350758E-01  7.079234E-01 -2.038502E+01

 displacements (vx,vy,vz) for set SENSOR and time  0.3296875E-01

      2895  2.273403E-01  6.878810E-01 -2.043417E+01

 displacements (vx,vy,vz) for set SENSOR and time  0.3312500E-01

      2895  2.266307E-01  6.538032E-01 -2.043115E+01

 displacements (vx,vy,vz) for set SENSOR and time  0.3328125E-01

      2895  2.326741E-01  6.141490E-01 -2.035279E+01

 displacements (vx,vy,vz) for set SENSOR and time  0.3343750E-01

      2895  2.449430E-01  5.771930E-01 -2.017645E+01

 displacements (vx,vy,vz) for set SENSOR and time  0.3359375E-01

      2895  2.622879E-01  5.489647E-01 -1.987707E+01

 displacements (vx,vy,vz) for set SENSOR and time  0.3375000E-01

      2895  2.825270E-01  5.321271E-01 -1.942768E+01

 displacements (vx,vy,vz) for set SENSOR and time  0.3390625E-01

      2895  3.023127E-01  5.259059E-01 -1.880658E+01

 displacements (vx,vy,vz) for set SENSOR and time  0.3406250E-01

      2895  3.175007E-01  5.269109E-01 -1.800987E+01

 displacements (vx,vy,vz) for set SENSOR and time  0.3421875E-01

      2895  3.240101E-01  5.305021E-01 -1.706339E+01

 displacements (vx,vy,vz) for set SENSOR and time  0.3437500E-01

      2895  3.188997E-01  5.322558E-01 -1.602651E+01

 displacements (vx,vy,vz) for set SENSOR and time  0.3453125E-01

      2895  3.012252E-01  5.290911E-01 -1.498255E+01

 displacements (vx,vy,vz) for set SENSOR and time  0.3468750E-01

      2895  2.722900E-01  5.197469E-01 -1.401710E+01

 displacements (vx,vy,vz) for set SENSOR and time  0.3484375E-01

      2895  2.351447E-01  5.045319E-01 -1.319138E+01

 displacements (vx,vy,vz) for set SENSOR and time  0.3500000E-01

      2895  1.935256E-01  4.845504E-01 -1.252181E+01

 displacements (vx,vy,vz) for set SENSOR and time  0.3515625E-01

      2895  1.506883E-01  4.608188E-01 -1.197513E+01

 displacements (vx,vy,vz) for set SENSOR and time  0.3531250E-01

      2895  1.086466E-01  4.337306E-01 -1.148231E+01

 displacements (vx,vy,vz) for set SENSOR and time  0.3546875E-01

      2895  6.813883E-02  4.031584E-01 -1.096627E+01

 displacements (vx,vy,vz) for set SENSOR and time  0.3562500E-01

      2895  2.929598E-02  3.691472E-01 -1.037236E+01

 displacements (vx,vy,vz) for set SENSOR and time  0.3578125E-01

      2895 -7.361400E-03  3.328281E-01 -9.688925E+00

 displacements (vx,vy,vz) for set SENSOR and time  0.3593750E-01

      2895 -4.013811E-02  2.970086E-01 -8.950015E+00

 displacements (vx,vy,vz) for set SENSOR and time  0.3609375E-01

      2895 -6.604035E-02  2.659998E-01 -8.219835E+00

 displacements (vx,vy,vz) for set SENSOR and time  0.3625000E-01

      2895 -8.145154E-02  2.445807E-01 -7.566859E+00

 displacements (vx,vy,vz) for set SENSOR and time  0.3640625E-01

      2895 -8.336410E-02  2.364218E-01 -7.039425E+00

 displacements (vx,vy,vz) for set SENSOR and time  0.3656250E-01

      2895 -7.065273E-02  2.425901E-01 -6.653237E+00

 displacements (vx,vy,vz) for set SENSOR and time  0.3671875E-01

      2895 -4.484096E-02  2.607809E-01 -6.394932E+00

 displacements (vx,vy,vz) for set SENSOR and time  0.3687500E-01

      2895 -1.002587E-02  2.856436E-01 -6.237894E+00

 displacements (vx,vy,vz) for set SENSOR and time  0.3703125E-01

      2895  2.802155E-02  3.101324E-01 -6.160849E+00

 displacements (vx,vy,vz) for set SENSOR and time  0.3718750E-01

      2895  6.323887E-02  3.274040E-01 -6.158963E+00

 displacements (vx,vy,vz) for set SENSOR and time  0.3734375E-01

      2895  9.064124E-02  3.326038E-01 -6.241649E+00

 displacements (vx,vy,vz) for set SENSOR and time  0.3750000E-01

      2895  1.072465E-01  3.239835E-01 -6.418606E+00

 displacements (vx,vy,vz) for set SENSOR and time  0.3765625E-01

      2895  1.123544E-01  3.030963E-01 -6.682161E+00

 displacements (vx,vy,vz) for set SENSOR and time  0.3781250E-01

      2895  1.072427E-01  2.741703E-01 -6.996418E+00

 displacements (vx,vy,vz) for set SENSOR and time  0.3796875E-01

      2895  9.451982E-02  2.429830E-01 -7.300719E+00

 displacements (vx,vy,vz) for set SENSOR and time  0.3812500E-01

      2895  7.740361E-02  2.156019E-01 -7.527912E+00

 displacements (vx,vy,vz) for set SENSOR and time  0.3828125E-01

      2895  5.910593E-02  1.972409E-01 -7.630294E+00

 displacements (vx,vy,vz) for set SENSOR and time  0.3843750E-01

      2895  4.237632E-02  1.913370E-01 -7.601476E+00

 displacements (vx,vy,vz) for set SENSOR and time  0.3859375E-01

      2895  2.918340E-02  1.988852E-01 -7.483361E+00

 displacements (vx,vy,vz) for set SENSOR and time  0.3875000E-01

      2895  2.052047E-02  2.180979E-01 -7.353476E+00

 displacements (vx,vy,vz) for set SENSOR and time  0.3890625E-01

      2895  1.638072E-02  2.445353E-01 -7.296522E+00

 displacements (vx,vy,vz) for set SENSOR and time  0.3906250E-01

      2895  1.598226E-02  2.718583E-01 -7.371244E+00