
 displacements (vx,vy,vz) for set SENSOR and time  0.1562500E-03

      2895 -5.106138E-03 -2.671823E-04  5.445571E-02

 displacements (vx,vy,vz) for set SENSOR and time  0.3125000E-03

      2895 -2.546657E-02 -2.499044E-03  3.070317E-01

 displacements (vx,vy,vz) for set SENSOR and time  0.4687500E-03

      2895 -2.876080E-02 -8.556015E-03  5.155820E-01

 displacements (vx,vy,vz) for set SENSOR and time  0.6250000E-03

      2895 -7.675053E-04 -1.824751E-02  5.216434E-01

 displacements (vx,vy,vz) for set SENSOR and time  0.7812500E-03

      2895  4.966186E-02 -2.697324E-02  2.309824E-01

 displacements (vx,vy,vz) for set SENSOR and time  0.9375000E-03

      2895  9.942383E-02 -2.716590E-02 -3.897364E-01

 displacements (vx,vy,vz) for set SENSOR and time  0.1093750E-02

      2895  1.219503E-01 -1.233240E-02 -1.256763E+00

 displacements (vx,vy,vz) for set SENSOR and time  0.1250000E-02

      2895  9.986300E-02  1.842253E-02 -2.150785E+00

 displacements (vx,vy,vz) for set SENSOR and time  0.1406250E-02

      2895  3.346494E-02  5.775253E-02 -2.765191E+00

 displacements (vx,vy,vz) for set SENSOR and time  0.1562500E-02

      2895 -5.879943E-02  9.109458E-02 -2.814490E+00

 displacements (vx,vy,vz) for set SENSOR and time  0.1718750E-02

      2895 -1.478724E-01  1.016328E-01 -2.158628E+00

 displacements (vx,vy,vz) for set SENSOR and time  0.1875000E-02

      2895 -2.058605E-01  7.758743E-02 -8.820959E-01

 displacements (vx,vy,vz) for set SENSOR and time  0.2031250E-02

      2895 -2.166182E-01  1.880579E-02  7.171162E-01

 displacements (vx,vy,vz) for set SENSOR and time  0.2187500E-02

      2895 -1.806642E-01 -6.056578E-02  2.231051E+00

 displacements (vx,vy,vz) for set SENSOR and time  0.2343750E-02

      2895 -1.129437E-01 -1.352547E-01  3.293385E+00

 displacements (vx,vy,vz) for set SENSOR and time  0.2500000E-02

      2895 -3.533687E-02 -1.774156E-01  3.709344E+00

 displacements (vx,vy,vz) for set SENSOR and time  0.2656250E-02

      2895  3.207217E-02 -1.675810E-01  3.504844E+00

 displacements (vx,vy,vz) for set SENSOR and time  0.2812500E-02

      2895  7.702551E-02 -1.035473E-01  2.877225E+00

 displacements (vx,vy,vz) for set SENSOR and time  0.2968750E-02

      2895  9.645392E-02 -3.111535E-03  2.079893E+00

 displacements (vx,vy,vz) for set SENSOR and time  0.3125000E-02

      2895  9.386036E-02  1.011519E-01  1.304667E+00

 displacements (vx,vy,vz) for set SENSOR and time  0.3281250E-02

      2895  7.528083E-02  1.735723E-01  6.216940E-01

 displacements (vx,vy,vz) for set SENSOR and time  0.3437500E-02

      2895  4.654753E-02  1.890863E-01  5.756479E-04

 displacements (vx,vy,vz) for set SENSOR and time  0.3593750E-02

      2895  1.313947E-02  1.433500E-01 -6.111436E-01

 displacements (vx,vy,vz) for set SENSOR and time  0.3750000E-02

      2895 -1.815925E-02  5.487934E-02 -1.207779E+00

 displacements (vx,vy,vz) for set SENSOR and time  0.3906250E-02

      2895 -3.797844E-02 -4.193577E-02 -1.697399E+00

 displacements (vx,vy,vz) for set SENSOR and time  0.4062500E-02

      2895 -3.553254E-02 -1.102318E-01 -1.945849E+00

 displacements (vx,vy,vz) for set SENSOR and time  0.4218750E-02

      2895 -2.737756E-03 -1.249836E-01 -1.867279E+00

 displacements (vx,vy,vz) for set SENSOR and time  0.4375000E-02

      2895  6.036069E-02 -8.228815E-02 -1.504923E+00

 displacements (vx,vy,vz) for set SENSOR and time  0.4531250E-02

      2895  1.419006E-01  1.667180E-04 -1.048658E+00

 displacements (vx,vy,vz) for set SENSOR and time  0.4687500E-02

      2895  2.190760E-01  9.143203E-02 -7.709017E-01

 displacements (vx,vy,vz) for set SENSOR and time  0.4843750E-02

      2895  2.644800E-01  1.606462E-01 -9.099248E-01

 displacements (vx,vy,vz) for set SENSOR and time  0.5000000E-02

      2895  2.561094E-01  1.895774E-01 -1.561838E+00

 displacements (vx,vy,vz) for set SENSOR and time  0.5156250E-02

      2895  1.870692E-01  1.790806E-01 -2.640251E+00

 displacements (vx,vy,vz) for set SENSOR and time  0.5312500E-02

      2895  7.059065E-02  1.470271E-01 -3.926152E+00

 displacements (vx,vy,vz) for set SENSOR and time  0.5468750E-02

      2895 -6.238589E-02  1.190543E-01 -5.180146E+00

 displacements (vx,vy,vz) for set SENSOR and time  0.5625000E-02

      2895 -1.727673E-01  1.165194E-01 -6.253766E+00

 displacements (vx,vy,vz) for set SENSOR and time  0.5781250E-02

      2895 -2.266267E-01  1.470146E-01 -7.137010E+00

 displacements (vx,vy,vz) for set SENSOR and time  0.5937500E-02

      2895 -2.071954E-01  2.013896E-01 -7.916358E+00

 displacements (vx,vy,vz) for set SENSOR and time  0.6093750E-02

      2895 -1.208742E-01  2.581917E-01 -8.670723E+00

 displacements (vx,vy,vz) for set SENSOR and time  0.6250000E-02

      2895  4.997665E-03  2.932109E-01 -9.371433E+00

 displacements (vx,vy,vz) for set SENSOR and time  0.6406250E-02

      2895  1.316052E-01  2.898154E-01 -9.853159E+00

 displacements (vx,vy,vz) for set SENSOR and time  0.6562500E-02

      2895  2.216026E-01  2.457530E-01 -9.883317E+00

 displacements (vx,vy,vz) for set SENSOR and time  0.6718750E-02

      2895  2.506960E-01  1.739000E-01 -9.298933E+00

 displacements (vx,vy,vz) for set SENSOR and time  0.6875000E-02

      2895  2.139146E-01  9.711578E-02 -8.135303E+00

 displacements (vx,vy,vz) for set SENSOR and time  0.7031250E-02

      2895  1.249571E-01  3.968710E-02 -6.666952E+00

 displacements (vx,vy,vz) for set SENSOR and time  0.7187500E-02

      2895  9.698539E-03  1.889356E-02 -5.323468E+00

 displacements (vx,vy,vz) for set SENSOR and time  0.7343750E-02

      2895 -1.031282E-01  3.973670E-02 -4.509854E+00

 displacements (vx,vy,vz) for set SENSOR and time  0.7500000E-02

      2895 -1.905548E-01  9.427579E-02 -4.417155E+00

 displacements (vx,vy,vz) for set SENSOR and time  0.7656250E-02

      2895 -2.406670E-01  1.651301E-01 -4.922080E+00

 displacements (vx,vy,vz) for set SENSOR and time  0.7812500E-02

      2895 -2.536045E-01  2.313401E-01 -5.634462E+00

 displacements (vx,vy,vz) for set SENSOR and time  0.7968750E-02

      2895 -2.389621E-01  2.743575E-01 -6.077264E+00

 displacements (vx,vy,vz) for set SENSOR and time  0.8125000E-02

      2895 -2.112654E-01  2.824023E-01 -5.913896E+00

 displacements (vx,vy,vz) for set SENSOR and time  0.8281250E-02

      2895 -1.852947E-01  2.523770E-01 -5.109454E+00

 displacements (vx,vy,vz) for set SENSOR and time  0.8437500E-02

      2895 -1.724823E-01  1.894581E-01 -3.942925E+00

 displacements (vx,vy,vz) for set SENSOR and time  0.8593750E-02

      2895 -1.788536E-01  1.050536E-01 -2.862197E+00

 displacements (vx,vy,vz) for set SENSOR and time  0.8750000E-02

      2895 -2.044273E-01  1.394762E-02 -2.254669E+00

 displacements (vx,vy,vz) for set SENSOR and time  0.8906250E-02

      2895 -2.437984E-01 -6.871237E-02 -2.250779E+00

 displacements (vx,vy,vz) for set SENSOR and time  0.9062500E-02

      2895 -2.876804E-01 -1.301547E-01 -2.661631E+00

 displacements (vx,vy,vz) for set SENSOR and time  0.9218750E-02

      2895 -3.252443E-01 -1.621647E-01 -3.082648E+00

 displacements (vx,vy,vz) for set SENSOR and time  0.9375000E-02

      2895 -3.469725E-01 -1.624596E-01 -3.108505E+00

 displacements (vx,vy,vz) for set SENSOR and time  0.9531250E-02

      2895 -3.474552E-01 -1.350247E-01 -2.546041E+00

 displacements (vx,vy,vz) for set SENSOR and time  0.9687500E-02

      2895 -3.272947E-01 -8.927289E-02 -1.512697E+00

 displacements (vx,vy,vz) for set SENSOR and time  0.9843750E-02

      2895 -2.932984E-01 -3.809611E-02 -3.682726E-01

 displacements (vx,vy,vz) for set SENSOR and time  0.1000000E-01

      2895 -2.565850E-01  4.856516E-03  4.837972E-01

 displacements (vx,vy,vz) for set SENSOR and time  0.1015625E-01

      2895 -2.289885E-01  2.811130E-02  8.196196E-01

 displacements (vx,vy,vz) for set SENSOR and time  0.1031250E-01

      2895 -2.189189E-01  2.486015E-02  7.223423E-01

 displacements (vx,vy,vz) for set SENSOR and time  0.1046875E-01

      2895 -2.282377E-01 -5.570982E-03  5.435552E-01

 displacements (vx,vy,vz) for set SENSOR and time  0.1062500E-01

      2895 -2.514655E-01 -5.763875E-02  7.159943E-01

 displacements (vx,vy,vz) for set SENSOR and time  0.1078125E-01

      2895 -2.777944E-01 -1.209504E-01  1.514755E+00

 displacements (vx,vy,vz) for set SENSOR and time  0.1093750E-01

      2895 -2.952414E-01 -1.828294E-01  2.893712E+00

 displacements (vx,vy,vz) for set SENSOR and time  0.1109375E-01

      2895 -2.953405E-01 -2.315296E-01  4.486839E+00

 displacements (vx,vy,vz) for set SENSOR and time  0.1125000E-01

      2895 -2.764655E-01 -2.593275E-01  5.779308E+00

 displacements (vx,vy,vz) for set SENSOR and time  0.1140625E-01

      2895 -2.443723E-01 -2.646410E-01  6.364571E+00

 displacements (vx,vy,vz) for set SENSOR and time  0.1156250E-01

      2895 -2.096729E-01 -2.524600E-01  6.157272E+00

 displacements (vx,vy,vz) for set SENSOR and time  0.1171875E-01

      2895 -1.832328E-01 -2.327705E-01  5.452273E+00

 displacements (vx,vy,vz) for set SENSOR and time  0.1187500E-01

      2895 -1.713821E-01 -2.172632E-01  4.797050E+00

 displacements (vx,vy,vz) for set SENSOR and time  0.1203125E-01

      2895 -1.729488E-01 -2.152678E-01  4.738746E+00

 displacements (vx,vy,vz) for set SENSOR and time  0.1218750E-01

      2895 -1.793949E-01 -2.302855E-01  5.570043E+00

 displacements (vx,vy,vz) for set SENSOR and time  0.1234375E-01

      2895 -1.780718E-01 -2.584704E-01  7.197833E+00

 displacements (vx,vy,vz) for set SENSOR and time  0.1250000E-01

      2895 -1.573218E-01 -2.898321E-01  9.196046E+00

 displacements (vx,vy,vz) for set SENSOR and time  0.1265625E-01

      2895 -1.113846E-01 -3.119427E-01  1.101168E+01

 displacements (vx,vy,vz) for set SENSOR and time  0.1281250E-01

      2895 -4.313216E-02 -3.148916E-01  1.221833E+01

 displacements (vx,vy,vz) for set SENSOR and time  0.1296875E-01

      2895  3.647760E-02 -2.955803E-01  1.269177E+01

 displacements (vx,vy,vz) for set SENSOR and time  0.1312500E-01

      2895  1.120339E-01 -2.595429E-01  1.262630E+01

 displacements (vx,vy,vz) for set SENSOR and time  0.1328125E-01

      2895  1.689872E-01 -2.193442E-01  1.239379E+01

 displacements (vx,vy,vz) for set SENSOR and time  0.1343750E-01

      2895  1.986086E-01 -1.899644E-01  1.232656E+01

 displacements (vx,vy,vz) for set SENSOR and time  0.1359375E-01

      2895  2.007406E-01 -1.828743E-01  1.254007E+01

 displacements (vx,vy,vz) for set SENSOR and time  0.1375000E-01

      2895  1.833865E-01 -2.011678E-01  1.288505E+01

 displacements (vx,vy,vz) for set SENSOR and time  0.1390625E-01

      2895  1.594180E-01 -2.378234E-01  1.304784E+01

 displacements (vx,vy,vz) for set SENSOR and time  0.1406250E-01

      2895  1.417526E-01 -2.779779E-01  1.273967E+01

 displacements (vx,vy,vz) for set SENSOR and time  0.1421875E-01

      2895  1.388491E-01 -3.044729E-01  1.187143E+01

 displacements (vx,vy,vz) for set SENSOR and time  0.1437500E-01

      2895  1.521375E-01 -3.045580E-01  1.062149E+01

 displacements (vx,vy,vz) for set SENSOR and time  0.1453125E-01

      2895  1.761686E-01 -2.750852E-01  9.363004E+00

 displacements (vx,vy,vz) for set SENSOR and time  0.1468750E-01

      2895  2.012105E-01 -2.240666E-01  8.490885E+00

 displacements (vx,vy,vz) for set SENSOR and time  0.1484375E-01

      2895  2.171504E-01 -1.678911E-01  8.239151E+00

 displacements (vx,vy,vz) for set SENSOR and time  0.1500000E-01

      2895  2.171992E-01 -1.252257E-01  8.580845E+00

 displacements (vx,vy,vz) for set SENSOR and time  0.1515625E-01

      2895  2.001301E-01 -1.099624E-01  9.256541E+00

 displacements (vx,vy,vz) for set SENSOR and time  0.1531250E-01

      2895  1.704476E-01 -1.259542E-01  9.909760E+00

 displacements (vx,vy,vz) for set SENSOR and time  0.1546875E-01

      2895  1.366793E-01 -1.655760E-01  1.025449E+01

 displacements (vx,vy,vz) for set SENSOR and time  0.1562500E-01

      2895  1.085862E-01 -2.126296E-01  1.018858E+01

 displacements (vx,vy,vz) for set SENSOR and time  0.1578125E-01

      2895  9.430158E-02 -2.484156E-01  9.800918E+00

 displacements (vx,vy,vz) for set SENSOR and time  0.1593750E-01

      2895  9.823016E-02 -2.585961E-01  9.280057E+00

 displacements (vx,vy,vz) for set SENSOR and time  0.1609375E-01

      2895  1.201190E-01 -2.382357E-01  8.783692E+00

 displacements (vx,vy,vz) for set SENSOR and time  0.1625000E-01

      2895  1.552761E-01 -1.931961E-01  8.345660E+00

 displacements (vx,vy,vz) for set SENSOR and time  0.1640625E-01

      2895  1.956380E-01 -1.375354E-01  7.871309E+00

 displacements (vx,vy,vz) for set SENSOR and time  0.1656250E-01

      2895  2.313306E-01 -8.810325E-02  7.219471E+00

 displacements (vx,vy,vz) for set SENSOR and time  0.1671875E-01

      2895  2.524565E-01 -5.852730E-02  6.319307E+00

 displacements (vx,vy,vz) for set SENSOR and time  0.1687500E-01

      2895  2.509403E-01 -5.487541E-02  5.250490E+00

 displacements (vx,vy,vz) for set SENSOR and time  0.1703125E-01

      2895  2.222621E-01 -7.446207E-02  4.235827E+00

 displacements (vx,vy,vz) for set SENSOR and time  0.1718750E-01

      2895  1.667982E-01 -1.079301E-01  3.544649E+00

 displacements (vx,vy,vz) for set SENSOR and time  0.1734375E-01

      2895  9.036156E-02 -1.434456E-01  3.355740E+00

 displacements (vx,vy,vz) for set SENSOR and time  0.1750000E-01

      2895  3.538637E-03 -1.711242E-01  3.652739E+00

 displacements (vx,vy,vz) for set SENSOR and time  0.1765625E-01

      2895 -8.034325E-02 -1.859224E-01  4.209752E+00

 displacements (vx,vy,vz) for set SENSOR and time  0.1781250E-01

      2895 -1.483357E-01 -1.880683E-01  4.678531E+00

 displacements (vx,vy,vz) for set SENSOR and time  0.1796875E-01

      2895 -1.912971E-01 -1.812660E-01  4.736047E+00

 displacements (vx,vy,vz) for set SENSOR and time  0.1812500E-01

      2895 -2.065399E-01 -1.698546E-01  4.220220E+00

 displacements (vx,vy,vz) for set SENSOR and time  0.1828125E-01

      2895 -1.986846E-01 -1.564281E-01  3.188281E+00

 displacements (vx,vy,vz) for set SENSOR and time  0.1843750E-01

      2895 -1.782279E-01 -1.410174E-01  1.872426E+00

 displacements (vx,vy,vz) for set SENSOR and time  0.1859375E-01

      2895 -1.581299E-01 -1.220367E-01  5.596175E-01

 displacements (vx,vy,vz) for set SENSOR and time  0.1875000E-01

      2895 -1.495116E-01 -9.825741E-02 -5.408797E-01

 displacements (vx,vy,vz) for set SENSOR and time  0.1890625E-01

      2895 -1.579714E-01 -7.055910E-02 -1.375946E+00

 displacements (vx,vy,vz) for set SENSOR and time  0.1906250E-01

      2895 -1.818806E-01 -4.236782E-02 -2.038256E+00

 displacements (vx,vy,vz) for set SENSOR and time  0.1921875E-01

      2895 -2.133110E-01 -1.843188E-02 -2.680452E+00

 displacements (vx,vy,vz) for set SENSOR and time  0.1937500E-01

      2895 -2.412489E-01 -2.523665E-03 -3.405945E+00

 displacements (vx,vy,vz) for set SENSOR and time  0.1953125E-01

      2895 -2.558660E-01  4.695290E-03 -4.197968E+00

 displacements (vx,vy,vz) for set SENSOR and time  0.1968750E-01

      2895 -2.522126E-01  6.401574E-03 -4.924826E+00

 displacements (vx,vy,vz) for set SENSOR and time  0.1984375E-01

      2895 -2.319496E-01  8.349639E-03 -5.416172E+00

 displacements (vx,vy,vz) for set SENSOR and time  0.2000000E-01

      2895 -2.025393E-01  1.606741E-02 -5.566272E+00

 displacements (vx,vy,vz) for set SENSOR and time  0.2015625E-01

      2895 -1.743271E-01  3.182085E-02 -5.406128E+00

 displacements (vx,vy,vz) for set SENSOR and time  0.2031250E-01

      2895 -1.567417E-01  5.291665E-02 -5.103865E+00

 displacements (vx,vy,vz) for set SENSOR and time  0.2046875E-01

      2895 -1.551007E-01  7.238179E-02 -4.891722E+00

 displacements (vx,vy,vz) for set SENSOR and time  0.2062500E-01

      2895 -1.691466E-01  8.195554E-02 -4.957049E+00

 displacements (vx,vy,vz) for set SENSOR and time  0.2078125E-01

      2895 -1.936542E-01  7.616635E-02 -5.353283E+00

 displacements (vx,vy,vz) for set SENSOR and time  0.2093750E-01

      2895 -2.206038E-01  5.561406E-02 -5.975592E+00

 displacements (vx,vy,vz) for set SENSOR and time  0.2109375E-01

      2895 -2.418822E-01  2.778791E-02 -6.611726E+00

 displacements (vx,vy,vz) for set SENSOR and time  0.2125000E-01

      2895 -2.514431E-01  4.774194E-03 -7.040092E+00

 displacements (vx,vy,vz) for set SENSOR and time  0.2140625E-01

      2895 -2.462906E-01 -1.396629E-03 -7.124555E+00

 displacements (vx,vy,vz) for set SENSOR and time  0.2156250E-01

      2895 -2.262808E-01  1.611902E-02 -6.860087E+00

 displacements (vx,vy,vz) for set SENSOR and time  0.2171875E-01

      2895 -1.932403E-01  5.558506E-02 -6.351432E+00

 displacements (vx,vy,vz) for set SENSOR and time  0.2187500E-01

      2895 -1.500557E-01  1.066018E-01 -5.742749E+00

 displacements (vx,vy,vz) for set SENSOR and time  0.2203125E-01

      2895 -1.001590E-01  1.535383E-01 -5.140307E+00

 displacements (vx,vy,vz) for set SENSOR and time  0.2218750E-01

      2895 -4.741358E-02  1.811995E-01 -4.570619E+00

 displacements (vx,vy,vz) for set SENSOR and time  0.2234375E-01

      2895  3.941158E-03  1.804825E-01 -3.993766E+00

 displacements (vx,vy,vz) for set SENSOR and time  0.2250000E-01

      2895  4.968713E-02  1.517613E-01 -3.359394E+00

 displacements (vx,vy,vz) for set SENSOR and time  0.2265625E-01

      2895  8.650520E-02  1.046656E-01 -2.668819E+00

 displacements (vx,vy,vz) for set SENSOR and time  0.2281250E-01

      2895  1.130525E-01  5.439160E-02 -2.003848E+00

 displacements (vx,vy,vz) for set SENSOR and time  0.2296875E-01

      2895  1.306539E-01  1.606345E-02 -1.502305E+00

 displacements (vx,vy,vz) for set SENSOR and time  0.2312500E-01

      2895  1.430497E-01 -6.191139E-04 -1.290893E+00

 displacements (vx,vy,vz) for set SENSOR and time  0.2328125E-01

      2895  1.550335E-01  5.584606E-03 -1.410948E+00

 displacements (vx,vy,vz) for set SENSOR and time  0.2343750E-01

      2895  1.704030E-01  2.776069E-02 -1.778368E+00

 displacements (vx,vy,vz) for set SENSOR and time  0.2359375E-01

      2895  1.901010E-01  5.415206E-02 -2.202405E+00

 displacements (vx,vy,vz) for set SENSOR and time  0.2375000E-01

      2895  2.114881E-01  7.300712E-02 -2.457924E+00

 displacements (vx,vy,vz) for set SENSOR and time  0.2390625E-01

      2895  2.292504E-01  7.700942E-02 -2.378090E+00

 displacements (vx,vy,vz) for set SENSOR and time  0.2406250E-01

      2895  2.376984E-01  6.563955E-02 -1.923500E+00

 displacements (vx,vy,vz) for set SENSOR and time  0.2421875E-01

      2895  2.334919E-01  4.473520E-02 -1.195112E+00

 displacements (vx,vy,vz) for set SENSOR and time  0.2437500E-01

      2895  2.175232E-01  2.363542E-02 -3.856958E-01

 displacements (vx,vy,vz) for set SENSOR and time  0.2453125E-01

      2895  1.949856E-01  1.117348E-02  3.060835E-01

 displacements (vx,vy,vz) for set SENSOR and time  0.2468750E-01

      2895  1.734569E-01  1.211441E-02  7.581716E-01

 displacements (vx,vy,vz) for set SENSOR and time  0.2484375E-01

      2895  1.597698E-01  2.534399E-02  9.671703E-01

 displacements (vx,vy,vz) for set SENSOR and time  0.2500000E-01

      2895  1.570720E-01  4.437387E-02  1.034160E+00

 displacements (vx,vy,vz) for set SENSOR and time  0.2515625E-01

      2895  1.634658E-01  5.984237E-02  1.105949E+00

 displacements (vx,vy,vz) for set SENSOR and time  0.2531250E-01

      2895  1.729379E-01  6.299374E-02  1.303156E+00

 displacements (vx,vy,vz) for set SENSOR and time  0.2546875E-01

      2895  1.782337E-01  4.883940E-02  1.669611E+00

 displacements (vx,vy,vz) for set SENSOR and time  0.2562500E-01

      2895  1.743989E-01  1.790370E-02  2.163774E+00

 displacements (vx,vy,vz) for set SENSOR and time  0.2578125E-01

      2895  1.613451E-01 -2.397566E-02  2.690604E+00

 displacements (vx,vy,vz) for set SENSOR and time  0.2593750E-01

      2895  1.441901E-01 -6.761223E-02  3.153169E+00

 displacements (vx,vy,vz) for set SENSOR and time  0.2609375E-01

      2895  1.311115E-01 -1.034254E-01  3.496549E+00

 displacements (vx,vy,vz) for set SENSOR and time  0.2625000E-01

      2895  1.295864E-01 -1.243287E-01  3.724105E+00

 displacements (vx,vy,vz) for set SENSOR and time  0.2640625E-01

      2895  1.426416E-01 -1.276061E-01  3.882698E+00

 displacements (vx,vy,vz) for set SENSOR and time  0.2656250E-01

      2895  1.667784E-01 -1.152607E-01  4.029490E+00

 displacements (vx,vy,vz) for set SENSOR and time  0.2671875E-01

      2895  1.925287E-01 -9.290089E-02  4.200416E+00

 displacements (vx,vy,vz) for set SENSOR and time  0.2687500E-01

      2895  2.074929E-01 -6.772225E-02  4.396518E+00

 displacements (vx,vy,vz) for set SENSOR and time  0.2703125E-01

      2895  2.006798E-01 -4.638267E-02  4.592411E+00

 displacements (vx,vy,vz) for set SENSOR and time  0.2718750E-01

      2895  1.664752E-01 -3.347555E-02  4.758522E+00

 displacements (vx,vy,vz) for set SENSOR and time  0.2734375E-01

      2895  1.067758E-01 -3.095564E-02  4.882112E+00

 displacements (vx,vy,vz) for set SENSOR and time  0.2750000E-01

      2895  3.061067E-02 -3.843596E-02  4.974462E+00

 displacements (vx,vy,vz) for set SENSOR and time  0.2765625E-01

      2895 -4.845572E-02 -5.395211E-02  5.060577E+00

 displacements (vx,vy,vz) for set SENSOR and time  0.2781250E-01

      2895 -1.160924E-01 -7.471271E-02  5.157995E+00

 displacements (vx,vy,vz) for set SENSOR and time  0.2796875E-01

      2895 -1.608520E-01 -9.753026E-02  5.257027E+00

 displacements (vx,vy,vz) for set SENSOR and time  0.2812500E-01

      2895 -1.766713E-01 -1.189341E-01  5.313484E+00

 displacements (vx,vy,vz) for set SENSOR and time  0.2828125E-01

      2895 -1.637631E-01 -1.352253E-01  5.258050E+00

 displacements (vx,vy,vz) for set SENSOR and time  0.2843750E-01

      2895 -1.280059E-01 -1.427921E-01  5.018166E+00

 displacements (vx,vy,vz) for set SENSOR and time  0.2859375E-01

      2895 -7.928680E-02 -1.388278E-01  4.542939E+00

 displacements (vx,vy,vz) for set SENSOR and time  0.2875000E-01

      2895 -2.930967E-02 -1.222794E-01  3.821416E+00

 displacements (vx,vy,vz) for set SENSOR and time  0.2890625E-01

      2895  1.073107E-02 -9.459177E-02  2.888703E+00

 displacements (vx,vy,vz) for set SENSOR and time  0.2906250E-01

      2895  3.233470E-02 -5.976326E-02  1.819892E+00

 displacements (vx,vy,vz) for set SENSOR and time  0.2921875E-01

      2895  3.146549E-02 -2.346617E-02  7.156212E-01

 displacements (vx,vy,vz) for set SENSOR and time  0.2937500E-01

      2895  9.558724E-03  8.592865E-03 -3.160608E-01

 displacements (vx,vy,vz) for set SENSOR and time  0.2953125E-01

      2895 -2.663198E-02  3.248869E-02 -1.178180E+00

 displacements (vx,vy,vz) for set SENSOR and time  0.2968750E-01

      2895 -6.658783E-02  4.731449E-02 -1.801858E+00

 displacements (vx,vy,vz) for set SENSOR and time  0.2984375E-01

      2895 -9.882909E-02  5.526451E-02 -2.160248E+00

 displacements (vx,vy,vz) for set SENSOR and time  0.3000000E-01

      2895 -1.143052E-01  6.046524E-02 -2.276643E+00

 displacements (vx,vy,vz) for set SENSOR and time  0.3015625E-01

      2895 -1.093093E-01  6.702286E-02 -2.223056E+00

 displacements (vx,vy,vz) for set SENSOR and time  0.3031250E-01

      2895 -8.682480E-02  7.713814E-02 -2.106735E+00

 displacements (vx,vy,vz) for set SENSOR and time  0.3046875E-01

      2895 -5.565080E-02  9.014686E-02 -2.045780E+00

 displacements (vx,vy,vz) for set SENSOR and time  0.3062500E-01

      2895 -2.744851E-02  1.029495E-01 -2.140017E+00

 displacements (vx,vy,vz) for set SENSOR and time  0.3078125E-01

      2895 -1.268225E-02  1.116689E-01 -2.446694E+00

 displacements (vx,vy,vz) for set SENSOR and time  0.3093750E-01

      2895 -1.693032E-02  1.137989E-01 -2.969871E+00

 displacements (vx,vy,vz) for set SENSOR and time  0.3109375E-01

      2895 -3.895823E-02  1.098559E-01 -3.667127E+00

 displacements (vx,vy,vz) for set SENSOR and time  0.3125000E-01

      2895 -7.128196E-02  1.037283E-01 -4.469622E+00

 displacements (vx,vy,vz) for set SENSOR and time  0.3140625E-01

      2895 -1.029700E-01  1.014772E-01 -5.305466E+00

 displacements (vx,vy,vz) for set SENSOR and time  0.3156250E-01

      2895 -1.235575E-01  1.090172E-01 -6.115404E+00

 displacements (vx,vy,vz) for set SENSOR and time  0.3171875E-01

      2895 -1.265494E-01  1.296061E-01 -6.854772E+00

 displacements (vx,vy,vz) for set SENSOR and time  0.3187500E-01

      2895 -1.112351E-01  1.621857E-01 -7.484188E+00

 displacements (vx,vy,vz) for set SENSOR and time  0.3203125E-01

      2895 -8.229048E-02  2.012918E-01 -7.958730E+00

 displacements (vx,vy,vz) for set SENSOR and time  0.3218750E-01

      2895 -4.756467E-02  2.386322E-01 -8.227002E+00

 displacements (vx,vy,vz) for set SENSOR and time  0.3234375E-01

      2895 -1.511879E-02  2.657850E-01 -8.246014E+00

 displacements (vx,vy,vz) for set SENSOR and time  0.3250000E-01

      2895  9.254410E-03  2.770388E-01 -8.007719E+00

 displacements (vx,vy,vz) for set SENSOR and time  0.3265625E-01

      2895  2.317923E-02  2.713551E-01 -7.563884E+00

 displacements (vx,vy,vz) for set SENSOR and time  0.3281250E-01

      2895  2.735078E-02  2.527639E-01 -7.033155E+00

 displacements (vx,vy,vz) for set SENSOR and time  0.3296875E-01

      2895  2.418720E-02  2.290726E-01 -6.580315E+00

 displacements (vx,vy,vz) for set SENSOR and time  0.3312500E-01

      2895  1.630463E-02  2.093506E-01 -6.370405E+00

 displacements (vx,vy,vz) for set SENSOR and time  0.3328125E-01

      2895  5.537095E-03  2.010493E-01 -6.513586E+00

 displacements (vx,vy,vz) for set SENSOR and time  0.3343750E-01

      2895 -7.200622E-03  2.077037E-01 -7.023345E+00

 displacements (vx,vy,vz) for set SENSOR and time  0.3359375E-01

      2895 -2.140171E-02  2.279379E-01 -7.806925E+00

 displacements (vx,vy,vz) for set SENSOR and time  0.3375000E-01

      2895 -3.630667E-02  2.560499E-01 -8.693762E+00

 displacements (vx,vy,vz) for set SENSOR and time  0.3390625E-01

      2895 -5.057917E-02  2.839388E-01 -9.491301E+00

 displacements (vx,vy,vz) for set SENSOR and time  0.3406250E-01

      2895 -6.252280E-02  3.037150E-01 -1.004568E+01

 displacements (vx,vy,vz) for set SENSOR and time  0.3421875E-01

      2895 -7.068042E-02  3.101409E-01 -1.028328E+01

 displacements (vx,vy,vz) for set SENSOR and time  0.3437500E-01

      2895 -7.442367E-02  3.021207E-01 -1.021865E+01

 displacements (vx,vy,vz) for set SENSOR and time  0.3453125E-01

      2895 -7.415831E-02  2.827923E-01 -9.930063E+00

 displacements (vx,vy,vz) for set SENSOR and time  0.3468750E-01

      2895 -7.101171E-02  2.582427E-01 -9.517844E+00

 displacements (vx,vy,vz) for set SENSOR and time  0.3484375E-01

      2895 -6.618285E-02  2.353376E-01 -9.066610E+00

 displacements (vx,vy,vz) for set SENSOR and time  0.3500000E-01

      2895 -6.033592E-02  2.194455E-01 -8.627012E+00

 displacements (vx,vy,vz) for set SENSOR and time  0.3515625E-01

      2895 -5.339282E-02  2.128570E-01 -8.220479E+00

 displacements (vx,vy,vz) for set SENSOR and time  0.3531250E-01

      2895 -4.484488E-02  2.144165E-01 -7.857511E+00

 displacements (vx,vy,vz) for set SENSOR and time  0.3546875E-01

      2895 -3.439458E-02  2.204198E-01 -7.553908E+00

 displacements (vx,vy,vz) for set SENSOR and time  0.3562500E-01

      2895 -2.253204E-02  2.263409E-01 -7.332644E+00

 displacements (vx,vy,vz) for set SENSOR and time  0.3578125E-01

      2895 -1.066742E-02  2.286539E-01 -7.209675E+00

 displacements (vx,vy,vz) for set SENSOR and time  0.3593750E-01

      2895 -6.754143E-04  2.260184E-01 -7.173427E+00

 displacements (vx,vy,vz) for set SENSOR and time  0.3609375E-01

      2895  5.960124E-03  2.194048E-01 -7.173177E+00

 displacements (vx,vy,vz) for set SENSOR and time  0.3625000E-01

      2895  8.965874E-03  2.112165E-01 -7.127791E+00

 displacements (vx,vy,vz) for set SENSOR and time  0.3640625E-01

      2895  9.600615E-03  2.038983E-01 -6.955059E+00

 displacements (vx,vy,vz) for set SENSOR and time  0.3656250E-01

      2895  1.023601E-02  1.987195E-01 -6.609451E+00

 displacements (vx,vy,vz) for set SENSOR and time  0.3671875E-01

      2895  1.331689E-02  1.952916E-01 -6.109531E+00

 displacements (vx,vy,vz) for set SENSOR and time  0.3687500E-01

      2895  2.014835E-02  1.920005E-01 -5.539640E+00

 displacements (vx,vy,vz) for set SENSOR and time  0.3703125E-01

      2895  3.008321E-02  1.870785E-01 -5.022369E+00

 displacements (vx,vy,vz) for set SENSOR and time  0.3718750E-01

      2895  4.053853E-02  1.797372E-01 -4.672884E+00

 displacements (vx,vy,vz) for set SENSOR and time  0.3734375E-01

      2895  4.791549E-02  1.707783E-01 -4.555594E+00

 displacements (vx,vy,vz) for set SENSOR and time  0.3750000E-01

      2895  4.909276E-02  1.623759E-01 -4.662973E+00

 displacements (vx,vy,vz) for set SENSOR and time  0.3765625E-01

      2895  4.289274E-02  1.571563E-01 -4.925653E+00

 displacements (vx,vy,vz) for set SENSOR and time  0.3781250E-01

      2895  3.090485E-02  1.570527E-01 -5.247666E+00

 displacements (vx,vy,vz) for set SENSOR and time  0.3796875E-01

      2895  1.729435E-02  1.625151E-01 -5.548801E+00

 displacements (vx,vy,vz) for set SENSOR and time  0.3812500E-01

      2895  7.622234E-03  1.724561E-01 -5.793472E+00

 displacements (vx,vy,vz) for set SENSOR and time  0.3828125E-01

      2895  7.082222E-03  1.849239E-01 -5.993424E+00

 displacements (vx,vy,vz) for set SENSOR and time  0.3843750E-01

      2895  1.877400E-02  1.981066E-01 -6.185760E+00

 displacements (vx,vy,vz) for set SENSOR and time  0.3859375E-01

      2895  4.260296E-02  2.111104E-01 -6.400487E+00

 displacements (vx,vy,vz) for set SENSOR and time  0.3875000E-01

      2895  7.515679E-02  2.240793E-01 -6.636507E+00

 displacements (vx,vy,vz) for set SENSOR and time  0.3890625E-01

      2895  1.105657E-01  2.375994E-01 -6.859400E+00

 displacements (vx,vy,vz) for set SENSOR and time  0.3906250E-01

      2895  1.420409E-01  2.517330E-01 -7.021713E+00