
 displacements (vx,vy,vz) for set SENSOR and time  0.1562500E-03

      2895  9.570189E-03  2.520598E-03 -1.171974E-01

 displacements (vx,vy,vz) for set SENSOR and time  0.3125000E-03

      2895  5.371997E-02  1.403869E-02 -6.420897E-01

 displacements (vx,vy,vz) for set SENSOR and time  0.4687500E-03

      2895  9.051109E-02  2.314546E-02 -1.010144E+00

 displacements (vx,vy,vz) for set SENSOR and time  0.6250000E-03

      2895  9.822265E-02  2.394723E-02 -9.366769E-01

 displacements (vx,vy,vz) for set SENSOR and time  0.7812500E-03

      2895  7.174737E-02  1.538527E-02 -4.156524E-01

 displacements (vx,vy,vz) for set SENSOR and time  0.9375000E-03

      2895  1.417608E-02 -9.990073E-04  3.833663E-01

 displacements (vx,vy,vz) for set SENSOR and time  0.1093750E-02

      2895 -6.381890E-02 -2.142523E-02  1.152094E+00

 displacements (vx,vy,vz) for set SENSOR and time  0.1250000E-02

      2895 -1.462758E-01 -4.079708E-02  1.523680E+00

 displacements (vx,vy,vz) for set SENSOR and time  0.1406250E-02

      2895 -2.153788E-01 -5.394321E-02  1.175860E+00

 displacements (vx,vy,vz) for set SENSOR and time  0.1562500E-02

      2895 -2.552620E-01 -5.685805E-02 -6.975628E-02

 displacements (vx,vy,vz) for set SENSOR and time  0.1718750E-02

      2895 -2.553417E-01 -4.763464E-02 -2.178867E+00

 displacements (vx,vy,vz) for set SENSOR and time  0.1875000E-02

      2895 -2.124637E-01 -2.687054E-02 -4.885731E+00

 displacements (vx,vy,vz) for set SENSOR and time  0.2031250E-02

      2895 -1.314297E-01  2.529623E-03 -7.731961E+00

 displacements (vx,vy,vz) for set SENSOR and time  0.2187500E-02

      2895 -2.384069E-02  3.607521E-02 -1.015608E+01

 displacements (vx,vy,vz) for set SENSOR and time  0.2343750E-02

      2895  9.443487E-02  6.872627E-02 -1.161418E+01

 displacements (vx,vy,vz) for set SENSOR and time  0.2500000E-02

      2895  2.065675E-01  9.597022E-02 -1.170363E+01

 displacements (vx,vy,vz) for set SENSOR and time  0.2656250E-02

      2895  2.981002E-01  1.146715E-01 -1.026039E+01

 displacements (vx,vy,vz) for set SENSOR and time  0.2812500E-02

      2895  3.595879E-01  1.235063E-01 -7.405637E+00

 displacements (vx,vy,vz) for set SENSOR and time  0.2968750E-02

      2895  3.880074E-01  1.229197E-01 -3.529511E+00

 displacements (vx,vy,vz) for set SENSOR and time  0.3125000E-02

      2895  3.867029E-01  1.146752E-01  7.861728E-01

 displacements (vx,vy,vz) for set SENSOR and time  0.3281250E-02

      2895  3.639691E-01  1.011733E-01  4.889282E+00

 displacements (vx,vy,vz) for set SENSOR and time  0.3437500E-02

      2895  3.306763E-01  8.476484E-02  8.195524E+00

 displacements (vx,vy,vz) for set SENSOR and time  0.3593750E-02

      2895  2.975351E-01  6.726183E-02  1.031161E+01

 displacements (vx,vy,vz) for set SENSOR and time  0.3750000E-02

      2895  2.726476E-01  4.977243E-02  1.111476E+01

 displacements (vx,vy,vz) for set SENSOR and time  0.3906250E-02

      2895  2.598894E-01  3.287006E-02  1.076991E+01

 displacements (vx,vy,vz) for set SENSOR and time  0.4062500E-02

      2895  2.584449E-01  1.699400E-02  9.680320E+00

 displacements (vx,vy,vz) for set SENSOR and time  0.4218750E-02

      2895  2.635313E-01  2.900544E-03  8.383042E+00

 displacements (vx,vy,vz) for set SENSOR and time  0.4375000E-02

      2895  2.680649E-01 -8.035346E-03  7.413681E+00

 displacements (vx,vy,vz) for set SENSOR and time  0.4531250E-02

      2895  2.648171E-01 -1.382127E-02  7.172336E+00

 displacements (vx,vy,vz) for set SENSOR and time  0.4687500E-02

      2895  2.485079E-01 -1.220619E-02  7.822591E+00

 displacements (vx,vy,vz) for set SENSOR and time  0.4843750E-02

      2895  2.173291E-01 -1.328906E-03  9.247868E+00

 displacements (vx,vy,vz) for set SENSOR and time  0.5000000E-02

      2895  1.735472E-01  1.952128E-02  1.107617E+01

 displacements (vx,vy,vz) for set SENSOR and time  0.5156250E-02

      2895  1.230680E-01  4.927091E-02  1.276819E+01

 displacements (vx,vy,vz) for set SENSOR and time  0.5312500E-02

      2895  7.410086E-02  8.478884E-02  1.374874E+01

 displacements (vx,vy,vz) for set SENSOR and time  0.5468750E-02

      2895  3.526802E-02  1.211281E-01  1.355107E+01

 displacements (vx,vy,vz) for set SENSOR and time  0.5625000E-02

      2895  1.362702E-02  1.523070E-01  1.194013E+01

 displacements (vx,vy,vz) for set SENSOR and time  0.5781250E-02

      2895  1.307716E-02  1.725034E-01  8.985206E+00

 displacements (vx,vy,vz) for set SENSOR and time  0.5937500E-02

      2895  3.351609E-02  1.774050E-01  5.063920E+00

 displacements (vx,vy,vz) for set SENSOR and time  0.6093750E-02

      2895  7.092262E-02  1.653900E-01  7.947990E-01

 displacements (vx,vy,vz) for set SENSOR and time  0.6250000E-02

      2895  1.183188E-01  1.382206E-01 -3.087600E+00

 displacements (vx,vy,vz) for set SENSOR and time  0.6406250E-02

      2895  1.673593E-01  1.010288E-01 -5.887980E+00

 displacements (vx,vy,vz) for set SENSOR and time  0.6562500E-02

      2895  2.101594E-01  6.153091E-02 -7.101618E+00

 displacements (vx,vy,vz) for set SENSOR and time  0.6718750E-02

      2895  2.409309E-01  2.859254E-02 -6.527889E+00

 displacements (vx,vy,vz) for set SENSOR and time  0.6875000E-02

      2895  2.570582E-01  1.043286E-02 -4.320356E+00

 displacements (vx,vy,vz) for set SENSOR and time  0.7031250E-02

      2895  2.593934E-01  1.285876E-02 -9.618078E-01

 displacements (vx,vy,vz) for set SENSOR and time  0.7187500E-02

      2895  2.517409E-01  3.793428E-02  2.830779E+00

 displacements (vx,vy,vz) for set SENSOR and time  0.7343750E-02

      2895  2.396965E-01  8.340656E-02  6.250894E+00

 displacements (vx,vy,vz) for set SENSOR and time  0.7500000E-02

      2895  2.291509E-01  1.430465E-01  8.565443E+00

 displacements (vx,vy,vz) for set SENSOR and time  0.7656250E-02

      2895  2.248342E-01  2.078567E-01  9.260862E+00

 displacements (vx,vy,vz) for set SENSOR and time  0.7812500E-02

      2895  2.292529E-01  2.678996E-01  8.141295E+00

 displacements (vx,vy,vz) for set SENSOR and time  0.7968750E-02

      2895  2.422590E-01  3.143526E-01  5.358604E+00

 displacements (vx,vy,vz) for set SENSOR and time  0.8125000E-02

      2895  2.613285E-01  3.413390E-01  1.369198E+00

 displacements (vx,vy,vz) for set SENSOR and time  0.8281250E-02

      2895  2.824452E-01  3.471297E-01 -3.171206E+00

 displacements (vx,vy,vz) for set SENSOR and time  0.8437500E-02

      2895  3.013395E-01  3.344475E-01 -7.550469E+00

 displacements (vx,vy,vz) for set SENSOR and time  0.8593750E-02

      2895  3.147465E-01  3.098072E-01 -1.114845E+01

 displacements (vx,vy,vz) for set SENSOR and time  0.8750000E-02

      2895  3.213482E-01  2.820357E-01 -1.355850E+01

 displacements (vx,vy,vz) for set SENSOR and time  0.8906250E-02

      2895  3.221486E-01  2.603014E-01 -1.465642E+01

 displacements (vx,vy,vz) for set SENSOR and time  0.9062500E-02

      2895  3.201770E-01  2.520835E-01 -1.460378E+01

 displacements (vx,vy,vz) for set SENSOR and time  0.9218750E-02

      2895  3.195861E-01  2.615246E-01 -1.378745E+01

 displacements (vx,vy,vz) for set SENSOR and time  0.9375000E-02

      2895  3.243696E-01  2.885187E-01 -1.271141E+01

 displacements (vx,vy,vz) for set SENSOR and time  0.9531250E-02

      2895  3.370270E-01  3.287250E-01 -1.186738E+01

 displacements (vx,vy,vz) for set SENSOR and time  0.9687500E-02

      2895  3.575300E-01  3.744932E-01 -1.161434E+01

 displacements (vx,vy,vz) for set SENSOR and time  0.9843750E-02

      2895  3.828814E-01  4.164955E-01 -1.209461E+01

 displacements (vx,vy,vz) for set SENSOR and time  0.1000000E-01

      2895  4.074277E-01  4.457123E-01 -1.320457E+01

 displacements (vx,vy,vz) for set SENSOR and time  0.1015625E-01

      2895  4.239060E-01  4.553557E-01 -1.462542E+01

 displacements (vx,vy,vz) for set SENSOR and time  0.1031250E-01

      2895  4.250303E-01  4.423358E-01 -1.590538E+01

 displacements (vx,vy,vz) for set SENSOR and time  0.1046875E-01

      2895  4.052816E-01  4.079804E-01 -1.657318E+01

 displacements (vx,vy,vz) for set SENSOR and time  0.1062500E-01

      2895  3.624979E-01  3.578771E-01 -1.625612E+01

 displacements (vx,vy,vz) for set SENSOR and time  0.1078125E-01

      2895  2.988861E-01  3.008854E-01 -1.477540E+01

 displacements (vx,vy,vz) for set SENSOR and time  0.1093750E-01

      2895  2.211821E-01  2.475260E-01 -1.219733E+01

 displacements (vx,vy,vz) for set SENSOR and time  0.1109375E-01

      2895  1.398655E-01  2.080678E-01 -8.829489E+00

 displacements (vx,vy,vz) for set SENSOR and time  0.1125000E-01

      2895  6.753223E-02  1.906777E-01 -5.163394E+00

 displacements (vx,vy,vz) for set SENSOR and time  0.1140625E-01

      2895  1.671833E-02  1.999697E-01 -1.777517E+00

 displacements (vx,vy,vz) for set SENSOR and time  0.1156250E-01

      2895 -2.404845E-03  2.362053E-01  7.773706E-01

 displacements (vx,vy,vz) for set SENSOR and time  0.1171875E-01

      2895  1.599881E-02  2.952665E-01  2.085031E+00

 displacements (vx,vy,vz) for set SENSOR and time  0.1187500E-01

      2895  7.220229E-02  3.693834E-01  1.939938E+00

 displacements (vx,vy,vz) for set SENSOR and time  0.1203125E-01

      2895  1.606957E-01  4.484691E-01  3.775538E-01

 displacements (vx,vy,vz) for set SENSOR and time  0.1218750E-01

      2895  2.710388E-01  5.218150E-01 -2.345795E+00

 displacements (vx,vy,vz) for set SENSOR and time  0.1234375E-01

      2895  3.896335E-01  5.798549E-01 -5.816610E+00

 displacements (vx,vy,vz) for set SENSOR and time  0.1250000E-01

      2895  5.020731E-01  6.157010E-01 -9.555299E+00

 displacements (vx,vy,vz) for set SENSOR and time  0.1265625E-01

      2895  5.956102E-01  6.262049E-01 -1.311320E+01

 displacements (vx,vy,vz) for set SENSOR and time  0.1281250E-01

      2895  6.612578E-01  6.123800E-01 -1.615396E+01

 displacements (vx,vy,vz) for set SENSOR and time  0.1296875E-01

      2895  6.951169E-01  5.791248E-01 -1.850235E+01

 displacements (vx,vy,vz) for set SENSOR and time  0.1312500E-01

      2895  6.986849E-01  5.343015E-01 -2.015222E+01

 displacements (vx,vy,vz) for set SENSOR and time  0.1328125E-01

      2895  6.781126E-01  4.873250E-01 -2.123493E+01

 displacements (vx,vy,vz) for set SENSOR and time  0.1343750E-01

      2895  6.425919E-01  4.474991E-01 -2.195904E+01

 displacements (vx,vy,vz) for set SENSOR and time  0.1359375E-01

      2895  6.022354E-01  4.223772E-01 -2.253793E+01

 displacements (vx,vy,vz) for set SENSOR and time  0.1375000E-01

      2895  5.659093E-01  4.164301E-01 -2.312420E+01

 displacements (vx,vy,vz) for set SENSOR and time  0.1390625E-01

      2895  5.394744E-01  4.302582E-01 -2.376689E+01

 displacements (vx,vy,vz) for set SENSOR and time  0.1406250E-01

      2895  5.248003E-01  4.604991E-01 -2.440130E+01

 displacements (vx,vy,vz) for set SENSOR and time  0.1421875E-01

      2895  5.197359E-01  5.004681E-01 -2.487266E+01

 displacements (vx,vy,vz) for set SENSOR and time  0.1437500E-01

      2895  5.190108E-01  5.414371E-01 -2.498640E+01

 displacements (vx,vy,vz) for set SENSOR and time  0.1453125E-01

      2895  5.158399E-01  5.743378E-01 -2.457133E+01

 displacements (vx,vy,vz) for set SENSOR and time  0.1468750E-01

      2895  5.038492E-01  5.915838E-01 -2.353900E+01

 displacements (vx,vy,vz) for set SENSOR and time  0.1484375E-01

      2895  4.788794E-01  5.886651E-01 -2.192378E+01

 displacements (vx,vy,vz) for set SENSOR and time  0.1500000E-01

      2895  4.402567E-01  5.651957E-01 -1.989297E+01

 displacements (vx,vy,vz) for set SENSOR and time  0.1515625E-01

      2895  3.912433E-01  5.251803E-01 -1.772389E+01

 displacements (vx,vy,vz) for set SENSOR and time  0.1531250E-01

      2895  3.385682E-01  4.764094E-01 -1.575267E+01

 displacements (vx,vy,vz) for set SENSOR and time  0.1546875E-01

      2895  2.911441E-01  4.290599E-01 -1.430658E+01

 displacements (vx,vy,vz) for set SENSOR and time  0.1562500E-01

      2895  2.582578E-01  3.937443E-01 -1.363545E+01

 displacements (vx,vy,vz) for set SENSOR and time  0.1578125E-01

      2895  2.476333E-01  3.793747E-01 -1.385811E+01

 displacements (vx,vy,vz) for set SENSOR and time  0.1593750E-01

      2895  2.637955E-01  3.912680E-01 -1.493608E+01

 displacements (vx,vy,vz) for set SENSOR and time  0.1609375E-01

      2895  3.070866E-01  4.298862E-01 -1.668041E+01

 displacements (vx,vy,vz) for set SENSOR and time  0.1625000E-01

      2895  3.735425E-01  4.904967E-01 -1.878995E+01

 displacements (vx,vy,vz) for set SENSOR and time  0.1640625E-01

      2895  4.556433E-01  5.638571E-01 -2.091208E+01

 displacements (vx,vy,vz) for set SENSOR and time  0.1656250E-01

      2895  5.437600E-01  6.378211E-01 -2.271189E+01

 displacements (vx,vy,vz) for set SENSOR and time  0.1671875E-01

      2895  6.279735E-01  6.995685E-01 -2.393454E+01

 displacements (vx,vy,vz) for set SENSOR and time  0.1687500E-01

      2895  6.998677E-01  7.380225E-01 -2.444683E+01

 displacements (vx,vy,vz) for set SENSOR and time  0.1703125E-01

      2895  7.539189E-01  7.459660E-01 -2.424994E+01

 displacements (vx,vy,vz) for set SENSOR and time  0.1718750E-01

      2895  7.882041E-01  7.214239E-01 -2.346140E+01

 displacements (vx,vy,vz) for set SENSOR and time  0.1734375E-01

      2895  8.043163E-01  6.680194E-01 -2.227233E+01

 displacements (vx,vy,vz) for set SENSOR and time  0.1750000E-01

      2895  8.065518E-01  5.942279E-01 -2.089090E+01

 displacements (vx,vy,vz) for set SENSOR and time  0.1765625E-01

      2895  8.005991E-01  5.116793E-01 -1.948651E+01

 displacements (vx,vy,vz) for set SENSOR and time  0.1781250E-01

      2895  7.920579E-01  4.328611E-01 -1.814830E+01

 displacements (vx,vy,vz) for set SENSOR and time  0.1796875E-01

      2895  7.851401E-01  3.687000E-01 -1.686784E+01

 displacements (vx,vy,vz) for set SENSOR and time  0.1812500E-01

      2895  7.818430E-01  3.265244E-01 -1.555018E+01

 displacements (vx,vy,vz) for set SENSOR and time  0.1828125E-01

      2895  7.817577E-01  3.088214E-01 -1.404984E+01

 displacements (vx,vy,vz) for set SENSOR and time  0.1843750E-01

      2895  7.825175E-01  3.130318E-01 -1.222285E+01

 displacements (vx,vy,vz) for set SENSOR and time  0.1859375E-01

      2895  7.807333E-01  3.323970E-01 -9.981482E+00

 displacements (vx,vy,vz) for set SENSOR and time  0.1875000E-01

      2895  7.731539E-01  3.576470E-01 -7.337753E+00

 displacements (vx,vy,vz) for set SENSOR and time  0.1890625E-01

      2895  7.577443E-01  3.791440E-01 -4.424176E+00

 displacements (vx,vy,vz) for set SENSOR and time  0.1906250E-01

      2895  7.344066E-01  3.890037E-01 -1.485451E+00

 displacements (vx,vy,vz) for set SENSOR and time  0.1921875E-01

      2895  7.051710E-01  3.827375E-01  1.158478E+00

 displacements (vx,vy,vz) for set SENSOR and time  0.1937500E-01

      2895  6.738214E-01  3.600757E-01  3.170884E+00

 displacements (vx,vy,vz) for set SENSOR and time  0.1953125E-01

      2895  6.450659E-01  3.248212E-01  4.265942E+00

 displacements (vx,vy,vz) for set SENSOR and time  0.1968750E-01

      2895  6.234735E-01  2.838023E-01  4.270973E+00

 displacements (vx,vy,vz) for set SENSOR and time  0.1984375E-01

      2895  6.124540E-01  2.451866E-01  3.169410E+00

 displacements (vx,vy,vz) for set SENSOR and time  0.2000000E-01

      2895  6.135368E-01  2.165518E-01  1.114637E+00

 displacements (vx,vy,vz) for set SENSOR and time  0.2015625E-01

      2895  6.261249E-01  2.031457E-01 -1.589027E+00

 displacements (vx,vy,vz) for set SENSOR and time  0.2031250E-01

      2895  6.477698E-01  2.067109E-01 -4.534877E+00

 displacements (vx,vy,vz) for set SENSOR and time  0.2046875E-01

      2895  6.748815E-01  2.251096E-01 -7.282344E+00

 displacements (vx,vy,vz) for set SENSOR and time  0.2062500E-01

      2895  7.036723E-01  2.528006E-01 -9.431672E+00

 displacements (vx,vy,vz) for set SENSOR and time  0.2078125E-01

      2895  7.310777E-01  2.820303E-01 -1.068976E+01

 displacements (vx,vy,vz) for set SENSOR and time  0.2093750E-01

      2895  7.554098E-01  3.044547E-01 -1.091411E+01

 displacements (vx,vy,vz) for set SENSOR and time  0.2109375E-01

      2895  7.765701E-01  3.128282E-01 -1.012674E+01

 displacements (vx,vy,vz) for set SENSOR and time  0.2125000E-01

      2895  7.957743E-01  3.024037E-01 -8.496089E+00

 displacements (vx,vy,vz) for set SENSOR and time  0.2140625E-01

      2895  8.148744E-01  2.717696E-01 -6.291961E+00

 displacements (vx,vy,vz) for set SENSOR and time  0.2156250E-01

      2895  8.354741E-01  2.229886E-01 -3.823903E+00

 displacements (vx,vy,vz) for set SENSOR and time  0.2171875E-01

      2895  8.581001E-01  1.610572E-01 -1.376542E+00

 displacements (vx,vy,vz) for set SENSOR and time  0.2187500E-01

      2895  8.816791E-01  9.284835E-02  8.443158E-01

 displacements (vx,vy,vz) for set SENSOR and time  0.2203125E-01

      2895  9.034971E-01  2.578870E-02  2.743916E+00

 displacements (vx,vy,vz) for set SENSOR and time  0.2218750E-01

      2895  9.196918E-01 -3.344303E-02  4.343304E+00

 displacements (vx,vy,vz) for set SENSOR and time  0.2234375E-01

      2895  9.261839E-01 -7.994734E-02  5.756988E+00

 displacements (vx,vy,vz) for set SENSOR and time  0.2250000E-01

      2895  9.198257E-01 -1.111976E-01  7.149917E+00

 displacements (vx,vy,vz) for set SENSOR and time  0.2265625E-01

      2895  8.994748E-01 -1.271395E-01  8.684563E+00

 displacements (vx,vy,vz) for set SENSOR and time  0.2281250E-01

      2895  8.666942E-01 -1.298471E-01  1.047083E+01

 displacements (vx,vy,vz) for set SENSOR and time  0.2296875E-01

      2895  8.258598E-01 -1.228700E-01  1.253053E+01

 displacements (vx,vy,vz) for set SENSOR and time  0.2312500E-01

      2895  7.835867E-01 -1.104465E-01  1.478463E+01

 displacements (vx,vy,vz) for set SENSOR and time  0.2328125E-01

      2895  7.475524E-01 -9.675525E-02  1.706618E+01

 displacements (vx,vy,vz) for set SENSOR and time  0.2343750E-01

      2895  7.249484E-01 -8.533535E-02  1.915582E+01

 displacements (vx,vy,vz) for set SENSOR and time  0.2359375E-01

      2895  7.208948E-01 -7.874616E-02  2.083181E+01

 displacements (vx,vy,vz) for set SENSOR and time  0.2375000E-01

      2895  7.371852E-01 -7.846911E-02  2.192321E+01

 displacements (vx,vy,vz) for set SENSOR and time  0.2390625E-01

      2895  7.716685E-01 -8.500457E-02  2.235403E+01

 displacements (vx,vy,vz) for set SENSOR and time  0.2406250E-01

      2895  8.184461E-01 -9.808762E-02  2.216836E+01

 displacements (vx,vy,vz) for set SENSOR and time  0.2421875E-01

      2895  8.688826E-01 -1.169449E-01  2.153054E+01

 displacements (vx,vy,vz) for set SENSOR and time  0.2437500E-01

      2895  9.132449E-01 -1.405327E-01  2.069998E+01

 displacements (vx,vy,vz) for set SENSOR and time  0.2453125E-01

      2895  9.426356E-01 -1.677252E-01  1.998566E+01

 displacements (vx,vy,vz) for set SENSOR and time  0.2468750E-01

      2895  9.508144E-01 -1.974500E-01  1.968973E+01

 displacements (vx,vy,vz) for set SENSOR and time  0.2484375E-01

      2895  9.355110E-01 -2.287825E-01  2.005189E+01

 displacements (vx,vy,vz) for set SENSOR and time  0.2500000E-01

      2895  8.989409E-01 -2.610177E-01  2.120589E+01

 displacements (vx,vy,vz) for set SENSOR and time  0.2515625E-01

      2895  8.474038E-01 -2.937253E-01  2.315678E+01

 displacements (vx,vy,vz) for set SENSOR and time  0.2531250E-01

      2895  7.900426E-01 -3.267795E-01  2.578308E+01

 displacements (vx,vy,vz) for set SENSOR and time  0.2546875E-01

      2895  7.370235E-01 -3.603459E-01  2.886257E+01

 displacements (vx,vy,vz) for set SENSOR and time  0.2562500E-01

      2895  6.975255E-01 -3.948006E-01  3.211584E+01

 displacements (vx,vy,vz) for set SENSOR and time  0.2578125E-01

      2895  6.779631E-01 -4.305735E-01  3.525784E+01

 displacements (vx,vy,vz) for set SENSOR and time  0.2593750E-01

      2895  6.808187E-01 -4.679277E-01  3.804674E+01

 displacements (vx,vy,vz) for set SENSOR and time  0.2609375E-01

      2895  7.043181E-01 -5.067140E-01  4.032032E+01

 displacements (vx,vy,vz) for set SENSOR and time  0.2625000E-01

      2895  7.430026E-01 -5.461657E-01  4.201341E+01

 displacements (vx,vy,vz) for set SENSOR and time  0.2640625E-01

      2895  7.890502E-01 -5.848004E-01  4.315402E+01

 displacements (vx,vy,vz) for set SENSOR and time  0.2656250E-01

      2895  8.340422E-01 -6.204896E-01  4.384113E+01

 displacements (vx,vy,vz) for set SENSOR and time  0.2671875E-01

      2895  8.707767E-01 -6.507183E-01  4.421027E+01

 displacements (vx,vy,vz) for set SENSOR and time  0.2687500E-01

      2895  8.947333E-01 -6.730132E-01  4.439619E+01

 displacements (vx,vy,vz) for set SENSOR and time  0.2703125E-01

      2895  9.048741E-01 -6.854669E-01  4.450117E+01

 displacements (vx,vy,vz) for set SENSOR and time  0.2718750E-01

      2895  9.036275E-01 -6.872490E-01  4.457645E+01

 displacements (vx,vy,vz) for set SENSOR and time  0.2734375E-01

      2895  8.960781E-01 -6.789804E-01  4.462022E+01

 displacements (vx,vy,vz) for set SENSOR and time  0.2750000E-01

      2895  8.885689E-01 -6.628621E-01  4.459160E+01

 displacements (vx,vy,vz) for set SENSOR and time  0.2765625E-01

      2895  8.870443E-01 -6.424970E-01  4.443611E+01

 displacements (vx,vy,vz) for set SENSOR and time  0.2781250E-01

      2895  8.955134E-01 -6.224085E-01  4.411548E+01

 displacements (vx,vy,vz) for set SENSOR and time  0.2796875E-01

      2895  9.149812E-01 -6.073293E-01  4.363350E+01

 displacements (vx,vy,vz) for set SENSOR and time  0.2812500E-01

      2895  9.430817E-01 -6.013963E-01  4.305096E+01

 displacements (vx,vy,vz) for set SENSOR and time  0.2828125E-01

      2895  9.744895E-01 -6.074146E-01  4.248523E+01

 displacements (vx,vy,vz) for set SENSOR and time  0.2843750E-01

      2895  1.002013E+00 -6.263509E-01  4.209416E+01

 displacements (vx,vy,vz) for set SENSOR and time  0.2859375E-01

      2895  1.018128E+00 -6.571702E-01  4.204748E+01

 displacements (vx,vy,vz) for set SENSOR and time  0.2875000E-01

      2895  1.016607E+00 -6.970603E-01  4.249237E+01

 displacements (vx,vy,vz) for set SENSOR and time  0.2890625E-01

      2895  9.939117E-01 -7.419992E-01  4.352102E+01

 displacements (vx,vy,vz) for set SENSOR and time  0.2906250E-01

      2895  9.500378E-01 -7.875473E-01  4.514794E+01

 displacements (vx,vy,vz) for set SENSOR and time  0.2921875E-01

      2895  8.886568E-01 -8.296942E-01  4.730234E+01

 displacements (vx,vy,vz) for set SENSOR and time  0.2937500E-01

      2895  8.165304E-01 -8.655749E-01  4.983759E+01

 displacements (vx,vy,vz) for set SENSOR and time  0.2953125E-01

      2895  7.423331E-01 -8.939066E-01  5.255582E+01

 displacements (vx,vy,vz) for set SENSOR and time  0.2968750E-01

      2895  6.751339E-01 -9.150560E-01  5.524235E+01

 displacements (vx,vy,vz) for set SENSOR and time  0.2984375E-01

      2895  6.228468E-01 -9.307389E-01  5.770220E+01

 displacements (vx,vy,vz) for set SENSOR and time  0.3000000E-01

      2895  5.909541E-01 -9.434339E-01  5.979110E+01

 displacements (vx,vy,vz) for set SENSOR and time  0.3015625E-01

      2895  5.817341E-01 -9.556598E-01  6.143421E+01

 displacements (vx,vy,vz) for set SENSOR and time  0.3031250E-01

      2895  5.941126E-01 -9.692919E-01  6.262937E+01

 displacements (vx,vy,vz) for set SENSOR and time  0.3046875E-01

      2895  6.241235E-01 -9.850811E-01  6.343486E+01

 displacements (vx,vy,vz) for set SENSOR and time  0.3062500E-01

      2895  6.658451E-01 -1.002484E+00  6.394572E+01

 displacements (vx,vy,vz) for set SENSOR and time  0.3078125E-01

      2895  7.125909E-01 -1.019838E+00  6.426488E+01

 displacements (vx,vy,vz) for set SENSOR and time  0.3093750E-01

      2895  7.581044E-01 -1.034828E+00  6.447658E+01

 displacements (vx,vy,vz) for set SENSOR and time  0.3109375E-01

      2895  7.975247E-01 -1.045130E+00  6.462867E+01

 displacements (vx,vy,vz) for set SENSOR and time  0.3125000E-01

      2895  8.279606E-01 -1.049060E+00  6.472786E+01

 displacements (vx,vy,vz) for set SENSOR and time  0.3140625E-01

      2895  8.486058E-01 -1.046085E+00  6.474865E+01

 displacements (vx,vy,vz) for set SENSOR and time  0.3156250E-01

      2895  8.604290E-01 -1.037051E+00  6.465298E+01

 displacements (vx,vy,vz) for set SENSOR and time  0.3171875E-01

      2895  8.655584E-01 -1.024106E+00  6.441478E+01

 displacements (vx,vy,vz) for set SENSOR and time  0.3187500E-01

      2895  8.665312E-01 -1.010303E+00  6.404229E+01

 displacements (vx,vy,vz) for set SENSOR and time  0.3203125E-01

      2895  8.655865E-01 -9.990032E-01  6.359150E+01

 displacements (vx,vy,vz) for set SENSOR and time  0.3218750E-01

      2895  8.641519E-01 -9.932080E-01  6.316594E+01

 displacements (vx,vy,vz) for set SENSOR and time  0.3234375E-01

      2895  8.626121E-01 -9.949711E-01  6.290180E+01

 displacements (vx,vy,vz) for set SENSOR and time  0.3250000E-01

      2895  8.603742E-01 -1.005020E+00  6.294097E+01

 displacements (vx,vy,vz) for set SENSOR and time  0.3265625E-01

      2895  8.561758E-01 -1.022666E+00  6.339786E+01

 displacements (vx,vy,vz) for set SENSOR and time  0.3281250E-01

      2895  8.485325E-01 -1.046000E+00  6.432796E+01

 displacements (vx,vy,vz) for set SENSOR and time  0.3296875E-01

      2895  8.362002E-01 -1.072336E+00  6.570586E+01

 displacements (vx,vy,vz) for set SENSOR and time  0.3312500E-01

      2895  8.185399E-01 -1.098775E+00  6.741902E+01

 displacements (vx,vy,vz) for set SENSOR and time  0.3328125E-01

      2895  7.957076E-01 -1.122766E+00  6.927980E+01

 displacements (vx,vy,vz) for set SENSOR and time  0.3343750E-01

      2895  7.686433E-01 -1.142550E+00  7.105434E+01

 displacements (vx,vy,vz) for set SENSOR and time  0.3359375E-01

      2895  7.388873E-01 -1.157385E+00  7.250295E+01

 displacements (vx,vy,vz) for set SENSOR and time  0.3375000E-01

      2895  7.082874E-01 -1.167537E+00  7.342351E+01

 displacements (vx,vy,vz) for set SENSOR and time  0.3390625E-01

      2895  6.786845E-01 -1.174045E+00  7.368902E+01

 displacements (vx,vy,vz) for set SENSOR and time  0.3406250E-01

      2895  6.516574E-01 -1.178341E+00  7.327084E+01

 displacements (vx,vy,vz) for set SENSOR and time  0.3421875E-01

      2895  6.283816E-01 -1.181821E+00  7.224273E+01

 displacements (vx,vy,vz) for set SENSOR and time  0.3437500E-01

      2895  6.096194E-01 -1.185466E+00  7.076462E+01

 displacements (vx,vy,vz) for set SENSOR and time  0.3453125E-01

      2895  5.958188E-01 -1.189603E+00  6.904969E+01

 displacements (vx,vy,vz) for set SENSOR and time  0.3468750E-01

      2895  5.872662E-01 -1.193844E+00  6.732199E+01

 displacements (vx,vy,vz) for set SENSOR and time  0.3484375E-01

      2895  5.842259E-01 -1.197207E+00  6.577383E+01

 displacements (vx,vy,vz) for set SENSOR and time  0.3500000E-01

      2895  5.870049E-01 -1.198374E+00  6.453225E+01

 displacements (vx,vy,vz) for set SENSOR and time  0.3515625E-01

      2895  5.959070E-01 -1.196035E+00  6.364167E+01

 displacements (vx,vy,vz) for set SENSOR and time  0.3531250E-01

      2895  6.110778E-01 -1.189213E+00  6.306593E+01

 displacements (vx,vy,vz) for set SENSOR and time  0.3546875E-01

      2895  6.322788E-01 -1.177525E+00  6.270869E+01

 displacements (vx,vy,vz) for set SENSOR and time  0.3562500E-01

      2895  6.586589E-01 -1.161306E+00  6.244670E+01

 displacements (vx,vy,vz) for set SENSOR and time  0.3578125E-01

      2895  6.886022E-01 -1.141590E+00  6.216760E+01

 displacements (vx,vy,vz) for set SENSOR and time  0.3593750E-01

      2895  7.197204E-01 -1.119955E+00  6.180292E+01

 displacements (vx,vy,vz) for set SENSOR and time  0.3609375E-01

      2895  7.490294E-01 -1.098262E+00  6.134835E+01

 displacements (vx,vy,vz) for set SENSOR and time  0.3625000E-01

      2895  7.733026E-01 -1.078352E+00  6.086604E+01

 displacements (vx,vy,vz) for set SENSOR and time  0.3640625E-01

      2895  7.895510E-01 -1.061749E+00  6.046864E+01

 displacements (vx,vy,vz) for set SENSOR and time  0.3656250E-01

      2895  7.955364E-01 -1.049425E+00  6.028859E+01

 displacements (vx,vy,vz) for set SENSOR and time  0.3671875E-01

      2895  7.902114E-01 -1.041667E+00  6.044024E+01

 displacements (vx,vy,vz) for set SENSOR and time  0.3687500E-01

      2895  7.739795E-01 -1.038059E+00  6.098406E+01

 displacements (vx,vy,vz) for set SENSOR and time  0.3703125E-01

      2895  7.487021E-01 -1.037577E+00  6.190176E+01

 displacements (vx,vy,vz) for set SENSOR and time  0.3718750E-01

      2895  7.174318E-01 -1.038793E+00  6.308886E+01

 displacements (vx,vy,vz) for set SENSOR and time  0.3734375E-01

      2895  6.839052E-01 -1.040126E+00  6.436724E+01

 displacements (vx,vy,vz) for set SENSOR and time  0.3750000E-01

      2895  6.518894E-01 -1.040135E+00  6.551541E+01

 displacements (vx,vy,vz) for set SENSOR and time  0.3765625E-01

      2895  6.245100E-01 -1.037765E+00  6.631033E+01

 displacements (vx,vy,vz) for set SENSOR and time  0.3781250E-01

      2895  6.036999E-01 -1.032546E+00  6.657154E+01

 displacements (vx,vy,vz) for set SENSOR and time  0.3796875E-01

      2895  5.898896E-01 -1.024674E+00  6.619790E+01

 displacements (vx,vy,vz) for set SENSOR and time  0.3812500E-01

      2895  5.820100E-01 -1.014982E+00  6.518875E+01

 displacements (vx,vy,vz) for set SENSOR and time  0.3828125E-01

      2895  5.778132E-01 -1.004776E+00  6.364461E+01

 displacements (vx,vy,vz) for set SENSOR and time  0.3843750E-01

      2895  5.744484E-01 -9.955786E-01  6.174712E+01

 displacements (vx,vy,vz) for set SENSOR and time  0.3859375E-01

      2895  5.691691E-01 -9.888059E-01  5.972273E+01

 displacements (vx,vy,vz) for set SENSOR and time  0.3875000E-01

      2895  5.600172E-01 -9.854410E-01  5.779796E+01

 displacements (vx,vy,vz) for set SENSOR and time  0.3890625E-01

      2895  5.463287E-01 -9.857680E-01  5.615597E+01

 displacements (vx,vy,vz) for set SENSOR and time  0.3906250E-01

      2895  5.289407E-01 -9.892245E-01  5.490390E+01