
 displacements (vx,vy,vz) for set SENSOR and time  0.1562500E-03

      2895  3.986722E-03  5.529496E-03  1.303561E-01

 displacements (vx,vy,vz) for set SENSOR and time  0.3125000E-03

      2895  2.217892E-02  3.169156E-02  7.517126E-01

 displacements (vx,vy,vz) for set SENSOR and time  0.4687500E-03

      2895  3.632822E-02  5.657122E-02  1.362388E+00

 displacements (vx,vy,vz) for set SENSOR and time  0.6250000E-03

      2895  3.642280E-02  6.956150E-02  1.718089E+00

 displacements (vx,vy,vz) for set SENSOR and time  0.7812500E-03

      2895  1.942037E-02  6.806208E-02  1.740557E+00

 displacements (vx,vy,vz) for set SENSOR and time  0.9375000E-03

      2895 -1.407045E-02  5.241412E-02  1.395430E+00

 displacements (vx,vy,vz) for set SENSOR and time  0.1093750E-02

      2895 -5.974780E-02  2.579829E-02  6.944660E-01

 displacements (vx,vy,vz) for set SENSOR and time  0.1250000E-02

      2895 -1.102444E-01 -6.433694E-03 -3.086301E-01

 displacements (vx,vy,vz) for set SENSOR and time  0.1406250E-02

      2895 -1.563259E-01 -3.784784E-02 -1.527347E+00

 displacements (vx,vy,vz) for set SENSOR and time  0.1562500E-02

      2895 -1.884596E-01 -6.220649E-02 -2.854315E+00

 displacements (vx,vy,vz) for set SENSOR and time  0.1718750E-02

      2895 -1.984905E-01 -7.467033E-02 -4.173722E+00

 displacements (vx,vy,vz) for set SENSOR and time  0.1875000E-02

      2895 -1.811323E-01 -7.267827E-02 -5.372277E+00

 displacements (vx,vy,vz) for set SENSOR and time  0.2031250E-02

      2895 -1.350131E-01 -5.633220E-02 -6.347538E+00

 displacements (vx,vy,vz) for set SENSOR and time  0.2187500E-02

      2895 -6.308077E-02 -2.822298E-02 -7.013407E+00

 displacements (vx,vy,vz) for set SENSOR and time  0.2343750E-02

      2895  2.771636E-02  7.243414E-03 -7.303368E+00

 displacements (vx,vy,vz) for set SENSOR and time  0.2500000E-02

      2895  1.274371E-01  4.485226E-02 -7.172539E+00

 displacements (vx,vy,vz) for set SENSOR and time  0.2656250E-02

      2895  2.246847E-01  7.968042E-02 -6.599569E+00

 displacements (vx,vy,vz) for set SENSOR and time  0.2812500E-02

      2895  3.084188E-01  1.080361E-01 -5.589006E+00

 displacements (vx,vy,vz) for set SENSOR and time  0.2968750E-02

      2895  3.697343E-01  1.280258E-01 -4.173996E+00

 displacements (vx,vy,vz) for set SENSOR and time  0.3125000E-02

      2895  4.032979E-01  1.396279E-01 -2.418428E+00

 displacements (vx,vy,vz) for set SENSOR and time  0.3281250E-02

      2895  4.081864E-01  1.442749E-01 -4.170984E-01

 displacements (vx,vy,vz) for set SENSOR and time  0.3437500E-02

      2895  3.879731E-01  1.440684E-01  1.707631E+00

 displacements (vx,vy,vz) for set SENSOR and time  0.3593750E-02

      2895  3.500394E-01  1.408447E-01  3.813744E+00

 displacements (vx,vy,vz) for set SENSOR and time  0.3750000E-02

      2895  3.042234E-01  1.353520E-01  5.752231E+00

 displacements (vx,vy,vz) for set SENSOR and time  0.3906250E-02

      2895  2.610400E-01  1.267766E-01  7.383458E+00

 displacements (vx,vy,vz) for set SENSOR and time  0.4062500E-02

      2895  2.297846E-01  1.127757E-01  8.595068E+00

 displacements (vx,vy,vz) for set SENSOR and time  0.4218750E-02

      2895  2.168575E-01  9.004209E-02  9.318412E+00

 displacements (vx,vy,vz) for set SENSOR and time  0.4375000E-02

      2895  2.246092E-01  5.529094E-02  9.540282E+00

 displacements (vx,vy,vz) for set SENSOR and time  0.4531250E-02

      2895  2.509192E-01  6.435685E-03  9.307252E+00

 displacements (vx,vy,vz) for set SENSOR and time  0.4687500E-02

      2895  2.895869E-01 -5.634864E-02  8.721090E+00

 displacements (vx,vy,vz) for set SENSOR and time  0.4843750E-02

      2895  3.314753E-01 -1.299728E-01  7.925352E+00

 displacements (vx,vy,vz) for set SENSOR and time  0.5000000E-02

      2895  3.662079E-01 -2.084123E-01  7.085011E+00

 displacements (vx,vy,vz) for set SENSOR and time  0.5156250E-02

      2895  3.841235E-01 -2.834010E-01  6.362430E+00

 displacements (vx,vy,vz) for set SENSOR and time  0.5312500E-02

      2895  3.781448E-01 -3.457526E-01  5.893826E+00

 displacements (vx,vy,vz) for set SENSOR and time  0.5468750E-02

      2895  3.452317E-01 -3.870667E-01  5.770375E+00

 displacements (vx,vy,vz) for set SENSOR and time  0.5625000E-02

      2895  2.871579E-01 -4.014608E-01  6.027236E+00

 displacements (vx,vy,vz) for set SENSOR and time  0.5781250E-02

      2895  2.104706E-01 -3.869416E-01  6.642246E+00

 displacements (vx,vy,vz) for set SENSOR and time  0.5937500E-02

      2895  1.256281E-01 -3.460812E-01  7.544087E+00

 displacements (vx,vy,vz) for set SENSOR and time  0.6093750E-02

      2895  4.545441E-02 -2.858042E-01  8.627929E+00

 displacements (vx,vy,vz) for set SENSOR and time  0.6250000E-02

      2895 -1.683814E-02 -2.162826E-01  9.775129E+00

 displacements (vx,vy,vz) for set SENSOR and time  0.6406250E-02

      2895 -4.973337E-02 -1.491352E-01  1.087297E+01

 displacements (vx,vy,vz) for set SENSOR and time  0.6562500E-02

      2895 -4.526247E-02 -9.529134E-02  1.183067E+01

 displacements (vx,vy,vz) for set SENSOR and time  0.6718750E-02

      2895 -3.215684E-04 -6.296731E-02  1.258900E+01

 displacements (vx,vy,vz) for set SENSOR and time  0.6875000E-02

      2895  8.275560E-02 -5.619097E-02  1.312246E+01

 displacements (vx,vy,vz) for set SENSOR and time  0.7031250E-02

      2895  1.964586E-01 -7.419602E-02  1.343463E+01

 displacements (vx,vy,vz) for set SENSOR and time  0.7187500E-02

      2895  3.291489E-01 -1.118200E-01  1.354902E+01

 displacements (vx,vy,vz) for set SENSOR and time  0.7343750E-02

      2895  4.667250E-01 -1.608162E-01  1.349837E+01

 displacements (vx,vy,vz) for set SENSOR and time  0.7500000E-02

      2895  5.946379E-01 -2.117828E-01  1.331572E+01

 displacements (vx,vy,vz) for set SENSOR and time  0.7656250E-02

      2895  6.999393E-01 -2.562722E-01  1.302960E+01

 displacements (vx,vy,vz) for set SENSOR and time  0.7812500E-02

      2895  7.730452E-01 -2.886033E-01  1.266441E+01

 displacements (vx,vy,vz) for set SENSOR and time  0.7968750E-02

      2895  8.089499E-01 -3.069662E-01  1.224578E+01

 displacements (vx,vy,vz) for set SENSOR and time  0.8125000E-02

      2895  8.077163E-01 -3.135775E-01  1.180860E+01

 displacements (vx,vy,vz) for set SENSOR and time  0.8281250E-02

      2895  7.741875E-01 -3.138649E-01  1.140522E+01

 displacements (vx,vy,vz) for set SENSOR and time  0.8437500E-02

      2895  7.169902E-01 -3.148894E-01  1.111037E+01

 displacements (vx,vy,vz) for set SENSOR and time  0.8593750E-02

      2895  6.470108E-01 -3.233933E-01  1.102061E+01

 displacements (vx,vy,vz) for set SENSOR and time  0.8750000E-02

      2895  5.756075E-01 -3.439524E-01  1.124682E+01

 displacements (vx,vy,vz) for set SENSOR and time  0.8906250E-02

      2895  5.128570E-01 -3.776838E-01  1.190035E+01

 displacements (vx,vy,vz) for set SENSOR and time  0.9062500E-02

      2895  4.661201E-01 -4.218299E-01  1.307481E+01

 displacements (vx,vy,vz) for set SENSOR and time  0.9218750E-02

      2895  4.391519E-01 -4.703286E-01  1.482693E+01

 displacements (vx,vy,vz) for set SENSOR and time  0.9375000E-02

      2895  4.318817E-01 -5.152413E-01  1.716042E+01

 displacements (vx,vy,vz) for set SENSOR and time  0.9531250E-02

      2895  4.408711E-01 -5.487017E-01  2.001638E+01

 displacements (vx,vy,vz) for set SENSOR and time  0.9687500E-02

      2895  4.603390E-01 -5.649187E-01  2.327305E+01

 displacements (vx,vy,vz) for set SENSOR and time  0.9843750E-02

      2895  4.835447E-01 -5.617469E-01  2.675568E+01

 displacements (vx,vy,vz) for set SENSOR and time  0.1000000E-01

      2895  5.042594E-01 -5.414349E-01  3.025566E+01

 displacements (vx,vy,vz) for set SENSOR and time  0.1015625E-01

      2895  5.180464E-01 -5.103504E-01  3.355623E+01

 displacements (vx,vy,vz) for set SENSOR and time  0.1031250E-01

      2895  5.231119E-01 -4.777231E-01  3.646079E+01

 displacements (vx,vy,vz) for set SENSOR and time  0.1046875E-01

      2895  5.205703E-01 -4.536753E-01  3.881941E+01

 displacements (vx,vy,vz) for set SENSOR and time  0.1062500E-01

      2895  5.140876E-01 -4.469831E-01  4.054931E+01

 displacements (vx,vy,vz) for set SENSOR and time  0.1078125E-01

      2895  5.089833E-01 -4.630773E-01  4.164622E+01

 displacements (vx,vy,vz) for set SENSOR and time  0.1093750E-01

      2895  5.109801E-01 -5.027465E-01  4.218487E+01

 displacements (vx,vy,vz) for set SENSOR and time  0.1109375E-01

      2895  5.248621E-01 -5.618438E-01  4.230889E+01

 displacements (vx,vy,vz) for set SENSOR and time  0.1125000E-01

      2895  5.533175E-01 -6.320776E-01  4.221152E+01

 displacements (vx,vy,vz) for set SENSOR and time  0.1140625E-01

      2895  5.962085E-01 -7.027175E-01  4.211031E+01

 displacements (vx,vy,vz) for set SENSOR and time  0.1156250E-01

      2895  6.504259E-01 -7.628454E-01  4.221932E+01

 displacements (vx,vy,vz) for set SENSOR and time  0.1171875E-01

      2895  7.103680E-01 -8.036566E-01  4.272256E+01

 displacements (vx,vy,vz) for set SENSOR and time  0.1187500E-01

      2895  7.689556E-01 -8.203119E-01  4.375192E+01

 displacements (vx,vy,vz) for set SENSOR and time  0.1203125E-01

      2895  8.189855E-01 -8.129428E-01  4.537211E+01

 displacements (vx,vy,vz) for set SENSOR and time  0.1218750E-01

      2895  8.545525E-01 -7.866023E-01  4.757405E+01

 displacements (vx,vy,vz) for set SENSOR and time  0.1234375E-01

      2895  8.722499E-01 -7.501885E-01  5.027687E+01

 displacements (vx,vy,vz) for set SENSOR and time  0.1250000E-01

      2895  8.719024E-01 -7.145880E-01  5.333805E+01

 displacements (vx,vy,vz) for set SENSOR and time  0.1265625E-01

      2895  8.566706E-01 -6.904493E-01  5.657008E+01

 displacements (vx,vy,vz) for set SENSOR and time  0.1281250E-01

      2895  8.324965E-01 -6.860623E-01  5.976149E+01

 displacements (vx,vy,vz) for set SENSOR and time  0.1296875E-01

      2895  8.069851E-01 -7.057798E-01  6.269999E+01

 displacements (vx,vy,vz) for set SENSOR and time  0.1312500E-01

      2895  7.879354E-01 -7.492876E-01  6.519500E+01

 displacements (vx,vy,vz) for set SENSOR and time  0.1328125E-01

      2895  7.818012E-01 -8.118308E-01  6.709718E+01

 displacements (vx,vy,vz) for set SENSOR and time  0.1343750E-01

      2895  7.923823E-01 -8.853029E-01  6.831290E+01

 displacements (vx,vy,vz) for set SENSOR and time  0.1359375E-01

      2895  8.200006E-01 -9.599232E-01  6.881209E+01

 displacements (vx,vy,vz) for set SENSOR and time  0.1375000E-01

      2895  8.613217E-01 -1.026127E+00  6.862863E+01

 displacements (vx,vy,vz) for set SENSOR and time  0.1390625E-01

      2895  9.098637E-01 -1.076267E+00  6.785357E+01

 displacements (vx,vy,vz) for set SENSOR and time  0.1406250E-01

      2895  9.570970E-01 -1.105809E+00  6.662214E+01

 displacements (vx,vy,vz) for set SENSOR and time  0.1421875E-01

      2895  9.939356E-01 -1.113817E+00  6.509654E+01

 displacements (vx,vy,vz) for set SENSOR and time  0.1437500E-01

      2895  1.012346E+00 -1.102713E+00  6.344716E+01

 displacements (vx,vy,vz) for set SENSOR and time  0.1453125E-01

      2895  1.006784E+00 -1.077435E+00  6.183484E+01

 displacements (vx,vy,vz) for set SENSOR and time  0.1468750E-01

      2895  9.752109E-01 -1.044241E+00  6.039691E+01

 displacements (vx,vy,vz) for set SENSOR and time  0.1484375E-01

      2895  9.195153E-01 -1.009451E+00  5.923864E+01

 displacements (vx,vy,vz) for set SENSOR and time  0.1500000E-01

      2895  8.452893E-01 -9.783921E-01  5.843091E+01

 displacements (vx,vy,vz) for set SENSOR and time  0.1515625E-01

      2895  7.610112E-01 -9.547496E-01  5.801350E+01

 displacements (vx,vy,vz) for set SENSOR and time  0.1531250E-01

      2895  6.767928E-01 -9.403788E-01  5.800230E+01

 displacements (vx,vy,vz) for set SENSOR and time  0.1546875E-01

      2895  6.029124E-01 -9.355461E-01  5.839786E+01

 displacements (vx,vy,vz) for set SENSOR and time  0.1562500E-01

      2895  5.483761E-01 -9.394531E-01  5.919257E+01

 displacements (vx,vy,vz) for set SENSOR and time  0.1578125E-01

      2895  5.197259E-01 -9.508552E-01  6.037419E+01

 displacements (vx,vy,vz) for set SENSOR and time  0.1593750E-01

      2895  5.202593E-01 -9.685900E-01  6.192437E+01

 displacements (vx,vy,vz) for set SENSOR and time  0.1609375E-01

      2895  5.497444E-01 -9.918808E-01  6.381241E+01

 displacements (vx,vy,vz) for set SENSOR and time  0.1625000E-01

      2895  6.046283E-01 -1.020360E+00  6.598605E+01

 displacements (vx,vy,vz) for set SENSOR and time  0.1640625E-01

      2895  6.786673E-01 -1.053847E+00  6.836207E+01

 displacements (vx,vy,vz) for set SENSOR and time  0.1656250E-01

      2895  7.638506E-01 -1.091972E+00  7.082036E+01

 displacements (vx,vy,vz) for set SENSOR and time  0.1671875E-01

      2895  8.514665E-01 -1.133803E+00  7.320458E+01

 displacements (vx,vy,vz) for set SENSOR and time  0.1687500E-01

      2895  9.331585E-01 -1.177587E+00  7.533155E+01

 displacements (vx,vy,vz) for set SENSOR and time  0.1703125E-01

      2895  1.001843E+00 -1.220716E+00  7.700956E+01

 displacements (vx,vy,vz) for set SENSOR and time  0.1718750E-01

      2895  1.052395E+00 -1.259944E+00  7.806375E+01

 displacements (vx,vy,vz) for set SENSOR and time  0.1734375E-01

      2895  1.082047E+00 -1.291817E+00  7.836470E+01

 displacements (vx,vy,vz) for set SENSOR and time  0.1750000E-01

      2895  1.090486E+00 -1.313214E+00  7.785484E+01

 displacements (vx,vy,vz) for set SENSOR and time  0.1765625E-01

      2895  1.079672E+00 -1.321888E+00  7.656744E+01

 displacements (vx,vy,vz) for set SENSOR and time  0.1781250E-01

      2895  1.053409E+00 -1.316881E+00  7.463313E+01

 displacements (vx,vy,vz) for set SENSOR and time  0.1796875E-01

      2895  1.016746E+00 -1.298719E+00  7.227157E+01

 displacements (vx,vy,vz) for set SENSOR and time  0.1812500E-01

      2895  9.752642E-01 -1.269361E+00  6.976788E+01

 displacements (vx,vy,vz) for set SENSOR and time  0.1828125E-01

      2895  9.343425E-01 -1.231918E+00  6.743697E+01

 displacements (vx,vy,vz) for set SENSOR and time  0.1843750E-01

      2895  8.984810E-01 -1.190223E+00  6.558090E+01

 displacements (vx,vy,vz) for set SENSOR and time  0.1859375E-01

      2895  8.707643E-01 -1.148330E+00  6.444640E+01

 displacements (vx,vy,vz) for set SENSOR and time  0.1875000E-01

      2895  8.525333E-01 -1.110067E+00  6.418971E+01

 displacements (vx,vy,vz) for set SENSOR and time  0.1890625E-01

      2895  8.433128E-01 -1.078698E+00  6.485480E+01

 displacements (vx,vy,vz) for set SENSOR and time  0.1906250E-01

      2895  8.410117E-01 -1.056728E+00  6.636888E+01

 displacements (vx,vy,vz) for set SENSOR and time  0.1921875E-01

      2895  8.423724E-01 -1.045857E+00  6.855565E+01

 displacements (vx,vy,vz) for set SENSOR and time  0.1937500E-01

      2895  8.436065E-01 -1.047022E+00  7.116387E+01

 displacements (vx,vy,vz) for set SENSOR and time  0.1953125E-01

      2895  8.411182E-01 -1.060477E+00  7.390592E+01

 displacements (vx,vy,vz) for set SENSOR and time  0.1968750E-01

      2895  8.321950E-01 -1.085835E+00  7.649942E+01

 displacements (vx,vy,vz) for set SENSOR and time  0.1984375E-01

      2895  8.155447E-01 -1.122053E+00  7.870468E+01

 displacements (vx,vy,vz) for set SENSOR and time  0.2000000E-01

      2895  7.915769E-01 -1.167354E+00  8.035207E+01

 displacements (vx,vy,vz) for set SENSOR and time  0.2015625E-01

      2895  7.623727E-01 -1.219115E+00  8.135536E+01

 displacements (vx,vy,vz) for set SENSOR and time  0.2031250E-01

      2895  7.313393E-01 -1.273800E+00  8.171038E+01

 displacements (vx,vy,vz) for set SENSOR and time  0.2046875E-01

      2895  7.026106E-01 -1.327001E+00  8.148073E+01

 displacements (vx,vy,vz) for set SENSOR and time  0.2062500E-01

      2895  6.803050E-01 -1.373656E+00  8.077512E+01

 displacements (vx,vy,vz) for set SENSOR and time  0.2078125E-01

      2895  6.677829E-01 -1.408464E+00  7.972152E+01

 displacements (vx,vy,vz) for set SENSOR and time  0.2093750E-01

      2895  6.670523E-01 -1.426478E+00  7.844381E+01

 displacements (vx,vy,vz) for set SENSOR and time  0.2109375E-01

      2895  6.784402E-01 -1.423811E+00  7.704508E+01

 displacements (vx,vy,vz) for set SENSOR and time  0.2125000E-01

      2895  7.005973E-01 -1.398336E+00  7.559986E+01

 displacements (vx,vy,vz) for set SENSOR and time  0.2140625E-01

      2895  7.308326E-01 -1.350245E+00  7.415533E+01

 displacements (vx,vy,vz) for set SENSOR and time  0.2156250E-01

      2895  7.657044E-01 -1.282350E+00  7.273938E+01

 displacements (vx,vy,vz) for set SENSOR and time  0.2171875E-01

      2895  8.017398E-01 -1.200020E+00  7.137201E+01

 displacements (vx,vy,vz) for set SENSOR and time  0.2187500E-01

      2895  8.361222E-01 -1.110726E+00  7.007638E+01

 displacements (vx,vy,vz) for set SENSOR and time  0.2203125E-01

      2895  8.671951E-01 -1.023213E+00  6.888598E+01

 displacements (vx,vy,vz) for set SENSOR and time  0.2218750E-01

      2895  8.946668E-01 -9.464155E-01  6.784626E+01

 displacements (vx,vy,vz) for set SENSOR and time  0.2234375E-01

      2895  9.194673E-01 -8.882547E-01  6.701016E+01

 displacements (vx,vy,vz) for set SENSOR and time  0.2250000E-01

      2895  9.432858E-01 -8.545156E-01  6.642922E+01

 displacements (vx,vy,vz) for set SENSOR and time  0.2265625E-01

      2895  9.678924E-01 -8.479873E-01  6.614266E+01

 displacements (vx,vy,vz) for set SENSOR and time  0.2281250E-01

      2895  9.943992E-01 -8.680159E-01  6.616749E+01

 displacements (vx,vy,vz) for set SENSOR and time  0.2296875E-01

      2895  1.022637E+00 -9.105622E-01  6.649230E+01

 displacements (vx,vy,vz) for set SENSOR and time  0.2312500E-01

      2895  1.050806E+00 -9.687693E-01  6.707619E+01

 displacements (vx,vy,vz) for set SENSOR and time  0.2328125E-01

      2895  1.075506E+00 -1.033962E+00  6.785320E+01

 displacements (vx,vy,vz) for set SENSOR and time  0.2343750E-01

      2895  1.092171E+00 -1.096927E+00  6.874096E+01

 displacements (vx,vy,vz) for set SENSOR and time  0.2359375E-01

      2895  1.095853E+00 -1.149262E+00  6.965160E+01

 displacements (vx,vy,vz) for set SENSOR and time  0.2375000E-01

      2895  1.082212E+00 -1.184580E+00  7.050227E+01

 displacements (vx,vy,vz) for set SENSOR and time  0.2390625E-01

      2895  1.048531E+00 -1.199370E+00  7.122338E+01

 displacements (vx,vy,vz) for set SENSOR and time  0.2406250E-01

      2895  9.945434E-01 -1.193360E+00  7.176298E+01

 displacements (vx,vy,vz) for set SENSOR and time  0.2421875E-01

      2895  9.229033E-01 -1.169349E+00  7.208736E+01

 displacements (vx,vy,vz) for set SENSOR and time  0.2437500E-01

      2895  8.391829E-01 -1.132522E+00  7.217858E+01

 displacements (vx,vy,vz) for set SENSOR and time  0.2453125E-01

      2895  7.513599E-01 -1.089405E+00  7.203064E+01

 displacements (vx,vy,vz) for set SENSOR and time  0.2468750E-01

      2895  6.688644E-01 -1.046634E+00  7.164598E+01

 displacements (vx,vy,vz) for set SENSOR and time  0.2484375E-01

      2895  6.013280E-01 -1.009784E+00  7.103362E+01

 displacements (vx,vy,vz) for set SENSOR and time  0.2500000E-01

      2895  5.572367E-01 -9.824707E-01  7.020953E+01

 displacements (vx,vy,vz) for set SENSOR and time  0.2515625E-01

      2895  5.427083E-01 -9.658823E-01  6.919857E+01

 displacements (vx,vy,vz) for set SENSOR and time  0.2531250E-01

      2895  5.605938E-01 -9.588255E-01  6.803685E+01

 displacements (vx,vy,vz) for set SENSOR and time  0.2546875E-01

      2895  6.100484E-01 -9.582543E-01  6.677265E+01

 displacements (vx,vy,vz) for set SENSOR and time  0.2562500E-01

      2895  6.866358E-01 -9.601578E-01  6.546438E+01

 displacements (vx,vy,vz) for set SENSOR and time  0.2578125E-01

      2895  7.829405E-01 -9.606076E-01  6.417503E+01

 displacements (vx,vy,vz) for set SENSOR and time  0.2593750E-01

      2895  8.895838E-01 -9.567330E-01  6.296329E+01

 displacements (vx,vy,vz) for set SENSOR and time  0.2609375E-01

      2895  9.964728E-01 -9.474084E-01  6.187318E+01

 displacements (vx,vy,vz) for set SENSOR and time  0.2625000E-01

      2895  1.094088E+00 -9.334977E-01  6.092450E+01

 displacements (vx,vy,vz) for set SENSOR and time  0.2640625E-01

      2895  1.174613E+00 -9.175985E-01  6.010713E+01

 displacements (vx,vy,vz) for set SENSOR and time  0.2656250E-01

      2895  1.232756E+00 -9.033412E-01  5.938119E+01

 displacements (vx,vy,vz) for set SENSOR and time  0.2671875E-01

      2895  1.266154E+00 -8.943988E-01  5.868434E+01

 displacements (vx,vy,vz) for set SENSOR and time  0.2687500E-01

      2895  1.275349E+00 -8.934338E-01  5.794539E+01

 displacements (vx,vy,vz) for set SENSOR and time  0.2703125E-01

      2895  1.263369E+00 -9.012322E-01  5.710199E+01

 displacements (vx,vy,vz) for set SENSOR and time  0.2718750E-01

      2895  1.235016E+00 -9.162392E-01  5.611845E+01

 displacements (vx,vy,vz) for set SENSOR and time  0.2734375E-01

      2895  1.196004E+00 -9.346290E-01  5.499944E+01

 displacements (vx,vy,vz) for set SENSOR and time  0.2750000E-01

      2895  1.152090E+00 -9.509272E-01  5.379573E+01

 displacements (vx,vy,vz) for set SENSOR and time  0.2765625E-01

      2895  1.108325E+00 -9.590773E-01  5.259947E+01

 displacements (vx,vy,vz) for set SENSOR and time  0.2781250E-01

      2895  1.068531E+00 -9.537395E-01  5.152887E+01

 displacements (vx,vy,vz) for set SENSOR and time  0.2796875E-01

      2895  1.035046E+00 -9.315472E-01  5.070455E+01

 displacements (vx,vy,vz) for set SENSOR and time  0.2812500E-01

      2895  1.008735E+00 -8.920430E-01  5.022214E+01

 displacements (vx,vy,vz) for set SENSOR and time  0.2828125E-01

      2895  9.892331E-01 -8.380711E-01  5.012671E+01

 displacements (vx,vy,vz) for set SENSOR and time  0.2843750E-01

      2895  9.753289E-01 -7.755116E-01  5.039524E+01

 displacements (vx,vy,vz) for set SENSOR and time  0.2859375E-01

      2895  9.654072E-01 -7.123787E-01  5.093153E+01

 displacements (vx,vy,vz) for set SENSOR and time  0.2875000E-01

      2895  9.578636E-01 -6.574375E-01  5.157597E+01

 displacements (vx,vy,vz) for set SENSOR and time  0.2890625E-01

      2895  9.514179E-01 -6.186026E-01  5.212940E+01

 displacements (vx,vy,vz) for set SENSOR and time  0.2906250E-01

      2895  9.452894E-01 -6.014332E-01  5.238709E+01

 displacements (vx,vy,vz) for set SENSOR and time  0.2921875E-01

      2895  9.392254E-01 -6.080255E-01  5.217674E+01

 displacements (vx,vy,vz) for set SENSOR and time  0.2937500E-01

      2895  9.334047E-01 -6.365315E-01  5.139289E+01

 displacements (vx,vy,vz) for set SENSOR and time  0.2953125E-01

      2895  9.282613E-01 -6.814049E-01  5.002077E+01

 displacements (vx,vy,vz) for set SENSOR and time  0.2968750E-01

      2895  9.242814E-01 -7.343329E-01  4.814434E+01

 displacements (vx,vy,vz) for set SENSOR and time  0.2984375E-01

      2895  9.218283E-01 -7.856750E-01  4.593642E+01

 displacements (vx,vy,vz) for set SENSOR and time  0.3000000E-01

      2895  9.210329E-01 -8.261314E-01  4.363235E+01

 displacements (vx,vy,vz) for set SENSOR and time  0.3015625E-01

      2895  9.217715E-01 -8.483233E-01  4.149186E+01

 displacements (vx,vy,vz) for set SENSOR and time  0.3031250E-01

      2895  9.237276E-01 -8.479903E-01  3.975655E+01

 displacements (vx,vy,vz) for set SENSOR and time  0.3046875E-01

      2895  9.265139E-01 -8.245948E-01  3.861087E+01

 displacements (vx,vy,vz) for set SENSOR and time  0.3062500E-01

      2895  9.298185E-01 -7.812461E-01  3.815419E+01

 displacements (vx,vy,vz) for set SENSOR and time  0.3078125E-01

      2895  9.335345E-01 -7.239926E-01  3.838886E+01

 displacements (vx,vy,vz) for set SENSOR and time  0.3093750E-01

      2895  9.378352E-01 -6.606497E-01  3.922617E+01

 displacements (vx,vy,vz) for set SENSOR and time  0.3109375E-01

      2895  9.431731E-01 -5.994121E-01  4.050829E+01

 displacements (vx,vy,vz) for set SENSOR and time  0.3125000E-01

      2895  9.501983E-01 -5.475212E-01  4.204118E+01

 displacements (vx,vy,vz) for set SENSOR and time  0.3140625E-01

      2895  9.596081E-01 -5.102291E-01  4.363134E+01

 displacements (vx,vy,vz) for set SENSOR and time  0.3156250E-01

      2895  9.719600E-01 -4.902179E-01  4.511878E+01

 displacements (vx,vy,vz) for set SENSOR and time  0.3171875E-01

      2895  9.874842E-01 -4.875313E-01  4.639981E+01

 displacements (vx,vy,vz) for set SENSOR and time  0.3187500E-01

      2895  1.005936E+00 -4.999662E-01  4.743561E+01

 displacements (vx,vy,vz) for set SENSOR and time  0.3203125E-01

      2895  1.026517E+00 -5.237857E-01  4.824570E+01

 displacements (vx,vy,vz) for set SENSOR and time  0.3218750E-01

      2895  1.047890E+00 -5.545702E-01  4.888908E+01

 displacements (vx,vy,vz) for set SENSOR and time  0.3234375E-01

      2895  1.068276E+00 -5.880171E-01  4.943798E+01

 displacements (vx,vy,vz) for set SENSOR and time  0.3250000E-01

      2895  1.085633E+00 -6.205409E-01  4.995093E+01

 displacements (vx,vy,vz) for set SENSOR and time  0.3265625E-01

      2895  1.097876E+00 -6.495930E-01  5.045154E+01

 displacements (vx,vy,vz) for set SENSOR and time  0.3281250E-01

      2895  1.103121E+00 -6.736935E-01  5.091795E+01

 displacements (vx,vy,vz) for set SENSOR and time  0.3296875E-01

      2895  1.099905E+00 -6.922412E-01  5.128515E+01

 displacements (vx,vy,vz) for set SENSOR and time  0.3312500E-01

      2895  1.087359E+00 -7.052030E-01  5.145965E+01

 displacements (vx,vy,vz) for set SENSOR and time  0.3328125E-01

      2895  1.065332E+00 -7.128014E-01  5.134277E+01

 displacements (vx,vy,vz) for set SENSOR and time  0.3343750E-01

      2895  1.034432E+00 -7.152926E-01  5.085713E+01

 displacements (vx,vy,vz) for set SENSOR and time  0.3359375E-01

      2895  9.960138E-01 -7.128866E-01  4.997027E+01

 displacements (vx,vy,vz) for set SENSOR and time  0.3375000E-01

      2895  9.520948E-01 -7.058084E-01  4.870976E+01

 displacements (vx,vy,vz) for set SENSOR and time  0.3390625E-01

      2895  9.052284E-01 -6.944524E-01  4.716639E+01

 displacements (vx,vy,vz) for set SENSOR and time  0.3406250E-01

      2895  8.583301E-01 -6.795542E-01  4.548438E+01

 displacements (vx,vy,vz) for set SENSOR and time  0.3421875E-01

      2895  8.144674E-01 -6.623031E-01  4.384044E+01

 displacements (vx,vy,vz) for set SENSOR and time  0.3437500E-01

      2895  7.766230E-01 -6.443364E-01  4.241589E+01

 displacements (vx,vy,vz) for set SENSOR and time  0.3453125E-01

      2895  7.474381E-01 -6.275967E-01  4.136723E+01

 displacements (vx,vy,vz) for set SENSOR and time  0.3468750E-01

      2895  7.289550E-01 -6.140752E-01  4.080094E+01

 displacements (vx,vy,vz) for set SENSOR and time  0.3484375E-01

      2895  7.223814E-01 -6.054980E-01  4.075713E+01

 displacements (vx,vy,vz) for set SENSOR and time  0.3500000E-01

      2895  7.279078E-01 -6.030336E-01  4.120477E+01

 displacements (vx,vy,vz) for set SENSOR and time  0.3515625E-01

      2895  7.446118E-01 -6.070926E-01  4.204898E+01

 displacements (vx,vy,vz) for set SENSOR and time  0.3531250E-01

      2895  7.704802E-01 -6.172700E-01  4.314817E+01

 displacements (vx,vy,vz) for set SENSOR and time  0.3546875E-01

      2895  8.025662E-01 -6.324395E-01  4.433766E+01

 displacements (vx,vy,vz) for set SENSOR and time  0.3562500E-01

      2895  8.372840E-01 -6.509742E-01  4.545485E+01

 displacements (vx,vy,vz) for set SENSOR and time  0.3578125E-01

      2895  8.708147E-01 -6.710321E-01  4.636168E+01

 displacements (vx,vy,vz) for set SENSOR and time  0.3593750E-01

      2895  8.995756E-01 -6.908348E-01  4.696070E+01

 displacements (vx,vy,vz) for set SENSOR and time  0.3609375E-01

      2895  9.206862E-01 -7.088727E-01  4.720299E+01

 displacements (vx,vy,vz) for set SENSOR and time  0.3625000E-01

      2895  9.323543E-01 -7.239963E-01  4.708759E+01

 displacements (vx,vy,vz) for set SENSOR and time  0.3640625E-01

      2895  9.341111E-01 -7.353904E-01  4.665414E+01

 displacements (vx,vy,vz) for set SENSOR and time  0.3656250E-01

      2895  9.268453E-01 -7.424647E-01  4.597105E+01

 displacements (vx,vy,vz) for set SENSOR and time  0.3671875E-01

      2895  9.126177E-01 -7.447211E-01  4.512216E+01

 displacements (vx,vy,vz) for set SENSOR and time  0.3687500E-01

      2895  8.942773E-01 -7.416655E-01  4.419448E+01

 displacements (vx,vy,vz) for set SENSOR and time  0.3703125E-01

      2895  8.749397E-01 -7.328209E-01  4.326876E+01

 displacements (vx,vy,vz) for set SENSOR and time  0.3718750E-01

      2895  8.574162E-01 -7.178623E-01  4.241365E+01

 displacements (vx,vy,vz) for set SENSOR and time  0.3734375E-01

      2895  8.436976E-01 -6.968572E-01  4.168317E+01

 displacements (vx,vy,vz) for set SENSOR and time  0.3750000E-01

      2895  8.345910E-01 -6.705484E-01  4.111657E+01

 displacements (vx,vy,vz) for set SENSOR and time  0.3765625E-01

      2895  8.295800E-01 -6.405934E-01  4.073927E+01

 displacements (vx,vy,vz) for set SENSOR and time  0.3781250E-01

      2895  8.269399E-01 -6.096665E-01  4.056398E+01

 displacements (vx,vy,vz) for set SENSOR and time  0.3796875E-01

      2895  8.240901E-01 -5.813499E-01  4.059137E+01

 displacements (vx,vy,vz) for set SENSOR and time  0.3812500E-01

      2895  8.181191E-01 -5.597832E-01  4.081031E+01

 displacements (vx,vy,vz) for set SENSOR and time  0.3828125E-01

      2895  8.063822E-01 -5.490989E-01  4.119830E+01

 displacements (vx,vy,vz) for set SENSOR and time  0.3843750E-01

      2895  7.870581E-01 -5.527247E-01  4.172284E+01

 displacements (vx,vy,vz) for set SENSOR and time  0.3859375E-01

      2895  7.595559E-01 -5.726826E-01  4.234428E+01

 displacements (vx,vy,vz) for set SENSOR and time  0.3875000E-01

      2895  7.246960E-01 -6.090276E-01  4.302044E+01

 displacements (vx,vy,vz) for set SENSOR and time  0.3890625E-01

      2895  6.846294E-01 -6.595614E-01  4.371253E+01

 displacements (vx,vy,vz) for set SENSOR and time  0.3906250E-01

      2895  6.425150E-01 -7.199089E-01  4.439120E+01