
 displacements (vx,vy,vz) for set SENSOR and time  0.1562500E-03

      2895 -5.368357E-03 -1.889101E-04  7.964286E-02

 displacements (vx,vy,vz) for set SENSOR and time  0.3125000E-03

      2895 -2.970459E-02 -1.585758E-03  4.654063E-01

 displacements (vx,vy,vz) for set SENSOR and time  0.4687500E-03

      2895 -4.797010E-02 -5.196077E-03  8.704473E-01

 displacements (vx,vy,vz) for set SENSOR and time  0.6250000E-03

      2895 -4.674203E-02 -1.197929E-02  1.151878E+00

 displacements (vx,vy,vz) for set SENSOR and time  0.7812500E-03

      2895 -2.301443E-02 -2.168559E-02  1.238526E+00

 displacements (vx,vy,vz) for set SENSOR and time  0.9375000E-03

      2895  2.036518E-02 -3.249306E-02  1.058367E+00

 displacements (vx,vy,vz) for set SENSOR and time  0.1093750E-02

      2895  7.519323E-02 -4.126766E-02  5.545932E-01

 displacements (vx,vy,vz) for set SENSOR and time  0.1250000E-02

      2895  1.296313E-01 -4.422960E-02 -2.934374E-01

 displacements (vx,vy,vz) for set SENSOR and time  0.1406250E-02

      2895  1.707592E-01 -3.789968E-02 -1.450639E+00

 displacements (vx,vy,vz) for set SENSOR and time  0.1562500E-02

      2895  1.873881E-01 -2.012558E-02 -2.814963E+00

 displacements (vx,vy,vz) for set SENSOR and time  0.1718750E-02

      2895  1.725175E-01  9.048245E-03 -4.220061E+00

 displacements (vx,vy,vz) for set SENSOR and time  0.1875000E-02

      2895  1.249068E-01  4.689107E-02 -5.454190E+00

 displacements (vx,vy,vz) for set SENSOR and time  0.2031250E-02

      2895  4.944335E-02  8.804066E-02 -6.293423E+00

 displacements (vx,vy,vz) for set SENSOR and time  0.2187500E-02

      2895 -4.374764E-02  1.251635E-01 -6.543151E+00

 displacements (vx,vy,vz) for set SENSOR and time  0.2343750E-02

      2895 -1.412267E-01  1.501568E-01 -6.078975E+00

 displacements (vx,vy,vz) for set SENSOR and time  0.2500000E-02

      2895 -2.287654E-01  1.557035E-01 -4.877396E+00

 displacements (vx,vy,vz) for set SENSOR and time  0.2656250E-02

      2895 -2.939294E-01  1.368940E-01 -3.028435E+00

 displacements (vx,vy,vz) for set SENSOR and time  0.2812500E-02

      2895 -3.281920E-01  9.258069E-02 -7.261439E-01

 displacements (vx,vy,vz) for set SENSOR and time  0.2968750E-02

      2895 -3.281802E-01  2.615110E-02  1.762002E+00

 displacements (vx,vy,vz) for set SENSOR and time  0.3125000E-02

      2895 -2.958670E-01 -5.450730E-02  4.140856E+00

 displacements (vx,vy,vz) for set SENSOR and time  0.3281250E-02

      2895 -2.377576E-01 -1.379343E-01  6.138857E+00

 displacements (vx,vy,vz) for set SENSOR and time  0.3437500E-02

      2895 -1.633296E-01 -2.108226E-01  7.553764E+00

 displacements (vx,vy,vz) for set SENSOR and time  0.3593750E-02

      2895 -8.312046E-02 -2.602780E-01  8.283079E+00

 displacements (vx,vy,vz) for set SENSOR and time  0.3750000E-02

      2895 -6.892162E-03 -2.762135E-01  8.333024E+00

 displacements (vx,vy,vz) for set SENSOR and time  0.3906250E-02

      2895  5.776354E-02 -2.534204E-01  7.805017E+00

 displacements (vx,vy,vz) for set SENSOR and time  0.4062500E-02

      2895  1.061587E-01 -1.928828E-01  6.863895E+00

 displacements (vx,vy,vz) for set SENSOR and time  0.4218750E-02

      2895  1.365424E-01 -1.020263E-01  5.696301E+00

 displacements (vx,vy,vz) for set SENSOR and time  0.4375000E-02

      2895  1.495664E-01  6.221048E-03  4.469642E+00

 displacements (vx,vy,vz) for set SENSOR and time  0.4531250E-02

      2895  1.474337E-01  1.154442E-01  3.301365E+00

 displacements (vx,vy,vz) for set SENSOR and time  0.4687500E-02

      2895  1.330265E-01  2.085045E-01  2.245234E+00

 displacements (vx,vy,vz) for set SENSOR and time  0.4843750E-02

      2895  1.092646E-01  2.705569E-01  1.296552E+00

 displacements (vx,vy,vz) for set SENSOR and time  0.5000000E-02

      2895  7.884101E-02  2.917540E-01  4.132304E-01

 displacements (vx,vy,vz) for set SENSOR and time  0.5156250E-02

      2895  4.433842E-02  2.691090E-01 -4.544978E-01

 displacements (vx,vy,vz) for set SENSOR and time  0.5312500E-02

      2895  8.597167E-03  2.071375E-01 -1.335008E+00

 displacements (vx,vy,vz) for set SENSOR and time  0.5468750E-02

      2895 -2.488451E-02  1.171268E-01 -2.215650E+00

 displacements (vx,vy,vz) for set SENSOR and time  0.5625000E-02

      2895 -5.175649E-02  1.514795E-02 -3.038491E+00

 displacements (vx,vy,vz) for set SENSOR and time  0.5781250E-02

      2895 -6.701209E-02 -8.082585E-02 -3.712876E+00

 displacements (vx,vy,vz) for set SENSOR and time  0.5937500E-02

      2895 -6.563940E-02 -1.541500E-01 -4.141406E+00

 displacements (vx,vy,vz) for set SENSOR and time  0.6093750E-02

      2895 -4.364947E-02 -1.924704E-01 -4.251980E+00

 displacements (vx,vy,vz) for set SENSOR and time  0.6250000E-02

      2895  7.336947E-04 -1.898504E-01 -4.026643E+00

 displacements (vx,vy,vz) for set SENSOR and time  0.6406250E-02

      2895  6.602465E-02 -1.476592E-01 -3.518571E+00

 displacements (vx,vy,vz) for set SENSOR and time  0.6562500E-02

      2895  1.468858E-01 -7.406779E-02 -2.851553E+00

 displacements (vx,vy,vz) for set SENSOR and time  0.6718750E-02

      2895  2.342415E-01  1.772824E-02 -2.200955E+00

 displacements (vx,vy,vz) for set SENSOR and time  0.6875000E-02

      2895  3.162051E-01  1.121864E-01 -1.760144E+00

 displacements (vx,vy,vz) for set SENSOR and time  0.7031250E-02

      2895  3.797433E-01  1.944520E-01 -1.700390E+00

 displacements (vx,vy,vz) for set SENSOR and time  0.7187500E-02

      2895  4.128285E-01  2.531454E-01 -2.134254E+00

 displacements (vx,vy,vz) for set SENSOR and time  0.7343750E-02

      2895  4.066887E-01  2.823604E-01 -3.091773E+00

 displacements (vx,vy,vz) for set SENSOR and time  0.7500000E-02

      2895  3.577095E-01  2.825043E-01 -4.515636E+00

 displacements (vx,vy,vz) for set SENSOR and time  0.7656250E-02

      2895  2.685793E-01  2.598524E-01 -6.276649E+00

 displacements (vx,vy,vz) for set SENSOR and time  0.7812500E-02

      2895  1.483929E-01  2.249503E-01 -8.205530E+00

 displacements (vx,vy,vz) for set SENSOR and time  0.7968750E-02

      2895  1.162407E-02  1.902264E-01 -1.013274E+01

 displacements (vx,vy,vz) for set SENSOR and time  0.8125000E-02

      2895 -1.239055E-01  1.673203E-01 -1.192590E+01

 displacements (vx,vy,vz) for set SENSOR and time  0.8281250E-02

      2895 -2.397331E-01  1.646734E-01 -1.351500E+01

 displacements (vx,vy,vz) for set SENSOR and time  0.8437500E-02

      2895 -3.196705E-01  1.858551E-01 -1.489866E+01

 displacements (vx,vy,vz) for set SENSOR and time  0.8593750E-02

      2895 -3.524136E-01  2.289296E-01 -1.613016E+01

 displacements (vx,vy,vz) for set SENSOR and time  0.8750000E-02

      2895 -3.333833E-01  2.869498E-01 -1.728705E+01

 displacements (vx,vy,vz) for set SENSOR and time  0.8906250E-02

      2895 -2.654737E-01  3.494374E-01 -1.843332E+01

 displacements (vx,vy,vz) for set SENSOR and time  0.9062500E-02

      2895 -1.585855E-01  4.045184E-01 -1.958497E+01

 displacements (vx,vy,vz) for set SENSOR and time  0.9218750E-02

      2895 -2.804421E-02  4.412696E-01 -2.068962E+01

 displacements (vx,vy,vz) for set SENSOR and time  0.9375000E-02

      2895  1.078047E-01  4.518168E-01 -2.162708E+01

 displacements (vx,vy,vz) for set SENSOR and time  0.9531250E-02

      2895  2.303941E-01  4.327921E-01 -2.223242E+01

 displacements (vx,vy,vz) for set SENSOR and time  0.9687500E-02

      2895  3.236477E-01  3.859095E-01 -2.233676E+01

 displacements (vx,vy,vz) for set SENSOR and time  0.9843750E-02

      2895  3.761670E-01  3.175953E-01 -2.181590E+01

 displacements (vx,vy,vz) for set SENSOR and time  0.1000000E-01

      2895  3.825704E-01  2.377940E-01 -2.063405E+01

 displacements (vx,vy,vz) for set SENSOR and time  0.1015625E-01

      2895  3.438282E-01  1.582152E-01 -1.887025E+01

 displacements (vx,vy,vz) for set SENSOR and time  0.1031250E-01

      2895  2.666195E-01  9.036697E-02 -1.671892E+01

 displacements (vx,vy,vz) for set SENSOR and time  0.1046875E-01

      2895  1.619008E-01  4.373427E-02 -1.446189E+01

 displacements (vx,vy,vz) for set SENSOR and time  0.1062500E-01

      2895  4.298645E-02  2.439939E-02 -1.241671E+01

 displacements (vx,vy,vz) for set SENSOR and time  0.1078125E-01

      2895 -7.650622E-02  3.429784E-02 -1.087196E+01

 displacements (vx,vy,vz) for set SENSOR and time  0.1093750E-01

      2895 -1.845176E-01  7.117006E-02 -1.002448E+01

 displacements (vx,vy,vz) for set SENSOR and time  0.1109375E-01

      2895 -2.719523E-01  1.291448E-01 -9.933665E+00

 displacements (vx,vy,vz) for set SENSOR and time  0.1125000E-01

      2895 -3.334837E-01  1.997921E-01 -1.050445E+01

 displacements (vx,vy,vz) for set SENSOR and time  0.1140625E-01

      2895 -3.677270E-01  2.734274E-01 -1.150443E+01

 displacements (vx,vy,vz) for set SENSOR and time  0.1156250E-01

      2895 -3.768542E-01  3.404419E-01 -1.261237E+01

 displacements (vx,vy,vz) for set SENSOR and time  0.1171875E-01

      2895 -3.658018E-01  3.924641E-01 -1.348779E+01

 displacements (vx,vy,vz) for set SENSOR and time  0.1187500E-01

      2895 -3.412524E-01  4.232195E-01 -1.384608E+01

 displacements (vx,vy,vz) for set SENSOR and time  0.1203125E-01

      2895 -3.105693E-01  4.290247E-01 -1.352180E+01

 displacements (vx,vy,vz) for set SENSOR and time  0.1218750E-01

      2895 -2.808285E-01  4.089210E-01 -1.250516E+01

 displacements (vx,vy,vz) for set SENSOR and time  0.1234375E-01

      2895 -2.580431E-01  3.644997E-01 -1.094290E+01

 displacements (vx,vy,vz) for set SENSOR and time  0.1250000E-01

      2895 -2.466249E-01  2.995029E-01 -9.103125E+00

 displacements (vx,vy,vz) for set SENSOR and time  0.1265625E-01

      2895 -2.490834E-01  2.192859E-01 -7.311844E+00

 displacements (vx,vy,vz) for set SENSOR and time  0.1281250E-01

      2895 -2.659429E-01  1.302216E-01 -5.876337E+00

 displacements (vx,vy,vz) for set SENSOR and time  0.1296875E-01

      2895 -2.958407E-01  3.910276E-02 -5.013192E+00

 displacements (vx,vy,vz) for set SENSOR and time  0.1312500E-01

      2895 -3.357803E-01 -4.741754E-02 -4.798194E+00

 displacements (vx,vy,vz) for set SENSOR and time  0.1328125E-01

      2895 -3.815124E-01 -1.233281E-01 -5.149952E+00

 displacements (vx,vy,vz) for set SENSOR and time  0.1343750E-01

      2895 -4.280255E-01 -1.836896E-01 -5.851137E+00

 displacements (vx,vy,vz) for set SENSOR and time  0.1359375E-01

      2895 -4.701194E-01 -2.249827E-01 -6.602165E+00

 displacements (vx,vy,vz) for set SENSOR and time  0.1375000E-01

      2895 -5.030242E-01 -2.453579E-01 -7.094315E+00

 displacements (vx,vy,vz) for set SENSOR and time  0.1390625E-01

      2895 -5.230080E-01 -2.447728E-01 -7.084539E+00

 displacements (vx,vy,vz) for set SENSOR and time  0.1406250E-01

      2895 -5.278998E-01 -2.249951E-01 -6.453800E+00

 displacements (vx,vy,vz) for set SENSOR and time  0.1421875E-01

      2895 -5.174463E-01 -1.894625E-01 -5.234705E+00

 displacements (vx,vy,vz) for set SENSOR and time  0.1437500E-01

      2895 -4.934273E-01 -1.429935E-01 -3.601693E+00

 displacements (vx,vy,vz) for set SENSOR and time  0.1453125E-01

      2895 -4.594845E-01 -9.136548E-02 -1.826164E+00

 displacements (vx,vy,vz) for set SENSOR and time  0.1468750E-01

      2895 -4.206539E-01 -4.078682E-02 -2.074969E-01

 displacements (vx,vy,vz) for set SENSOR and time  0.1484375E-01

      2895 -3.826520E-01  2.690880E-03  1.003058E+00

 displacements (vx,vy,vz) for set SENSOR and time  0.1500000E-01

      2895 -3.510090E-01  3.376515E-02  1.666837E+00

 displacements (vx,vy,vz) for set SENSOR and time  0.1515625E-01

      2895 -3.301883E-01  4.841895E-02  1.794484E+00

 displacements (vx,vy,vz) for set SENSOR and time  0.1531250E-01

      2895 -3.228415E-01  4.434175E-02  1.545531E+00

 displacements (vx,vy,vz) for set SENSOR and time  0.1546875E-01

      2895 -3.293411E-01  2.118503E-02  1.190484E+00

 displacements (vx,vy,vz) for set SENSOR and time  0.1562500E-01

      2895 -3.476878E-01 -1.938400E-02  1.044244E+00

 displacements (vx,vy,vz) for set SENSOR and time  0.1578125E-01

      2895 -3.738281E-01 -7.384742E-02  1.386829E+00

 displacements (vx,vy,vz) for set SENSOR and time  0.1593750E-01

      2895 -4.023423E-01 -1.372145E-01  2.390670E+00

 displacements (vx,vy,vz) for set SENSOR and time  0.1609375E-01

      2895 -4.273894E-01 -2.035824E-01  4.072443E+00

 displacements (vx,vy,vz) for set SENSOR and time  0.1625000E-01

      2895 -4.437443E-01 -2.668253E-01  6.281667E+00

 displacements (vx,vy,vz) for set SENSOR and time  0.1640625E-01

      2895 -4.477368E-01 -3.213362E-01  8.729624E+00

 displacements (vx,vy,vz) for set SENSOR and time  0.1656250E-01

      2895 -4.379142E-01 -3.627316E-01  1.105248E+01

 displacements (vx,vy,vz) for set SENSOR and time  0.1671875E-01

      2895 -4.152976E-01 -3.884232E-01  1.289427E+01

 displacements (vx,vy,vz) for set SENSOR and time  0.1687500E-01

      2895 -3.831752E-01 -3.979678E-01  1.399034E+01

 displacements (vx,vy,vz) for set SENSOR and time  0.1703125E-01

      2895 -3.464616E-01 -3.931317E-01  1.423182E+01

 displacements (vx,vy,vz) for set SENSOR and time  0.1718750E-01

      2895 -3.107397E-01 -3.776360E-01  1.369556E+01

 displacements (vx,vy,vz) for set SENSOR and time  0.1734375E-01

      2895 -2.811598E-01 -3.566022E-01  1.263228E+01

 displacements (vx,vy,vz) for set SENSOR and time  0.1750000E-01

      2895 -2.614051E-01 -3.357592E-01  1.141528E+01

 displacements (vx,vy,vz) for set SENSOR and time  0.1765625E-01

      2895 -2.529223E-01 -3.205266E-01  1.046103E+01

 displacements (vx,vy,vz) for set SENSOR and time  0.1781250E-01

      2895 -2.545674E-01 -3.151130E-01  1.013986E+01

 displacements (vx,vy,vz) for set SENSOR and time  0.1796875E-01

      2895 -2.627425E-01 -3.217837E-01  1.069679E+01

 displacements (vx,vy,vz) for set SENSOR and time  0.1812500E-01

      2895 -2.720054E-01 -3.404311E-01  1.220037E+01

 displacements (vx,vy,vz) for set SENSOR and time  0.1828125E-01

      2895 -2.760447E-01 -3.685432E-01  1.453062E+01

 displacements (vx,vy,vz) for set SENSOR and time  0.1843750E-01

      2895 -2.688444E-01 -4.015950E-01  1.740839E+01

 displacements (vx,vy,vz) for set SENSOR and time  0.1859375E-01

      2895 -2.458240E-01 -4.338190E-01  2.045838E+01

 displacements (vx,vy,vz) for set SENSOR and time  0.1875000E-01

      2895 -2.047426E-01 -4.592335E-01  2.329115E+01

 displacements (vx,vy,vz) for set SENSOR and time  0.1890625E-01

      2895 -1.462020E-01 -4.727543E-01  2.558482E+01

 displacements (vx,vy,vz) for set SENSOR and time  0.1906250E-01

      2895 -7.365093E-02 -4.711896E-01  2.714820E+01

 displacements (vx,vy,vz) for set SENSOR and time  0.1921875E-01

      2895  7.108509E-03 -4.539276E-01  2.795131E+01

 displacements (vx,vy,vz) for set SENSOR and time  0.1937500E-01

      2895  8.882793E-02 -4.231736E-01  2.811785E+01

 displacements (vx,vy,vz) for set SENSOR and time  0.1953125E-01

      2895  1.639690E-01 -3.836729E-01  2.788263E+01

 displacements (vx,vy,vz) for set SENSOR and time  0.1968750E-01

      2895  2.259051E-01 -3.419467E-01  2.752537E+01

 displacements (vx,vy,vz) for set SENSOR and time  0.1984375E-01

      2895  2.699579E-01 -3.051659E-01  2.729763E+01

 displacements (vx,vy,vz) for set SENSOR and time  0.2000000E-01

      2895  2.940908E-01 -2.798564E-01  2.736031E+01

 displacements (vx,vy,vz) for set SENSOR and time  0.2015625E-01

      2895  2.991472E-01 -2.706736E-01  2.774654E+01

 displacements (vx,vy,vz) for set SENSOR and time  0.2031250E-01

      2895  2.886040E-01 -2.794766E-01  2.835815E+01

 displacements (vx,vy,vz) for set SENSOR and time  0.2046875E-01

      2895  2.678962E-01 -3.048842E-01  2.899537E+01

 displacements (vx,vy,vz) for set SENSOR and time  0.2062500E-01

      2895  2.434430E-01 -3.424127E-01  2.941187E+01

 displacements (vx,vy,vz) for set SENSOR and time  0.2078125E-01

      2895  2.215527E-01 -3.851847E-01  2.938107E+01

 displacements (vx,vy,vz) for set SENSOR and time  0.2093750E-01

      2895  2.073982E-01 -4.250967E-01  2.875714E+01

 displacements (vx,vy,vz) for set SENSOR and time  0.2109375E-01

      2895  2.042324E-01 -4.542404E-01  2.751623E+01

 displacements (vx,vy,vz) for set SENSOR and time  0.2125000E-01

      2895  2.129659E-01 -4.663242E-01  2.576797E+01

 displacements (vx,vy,vz) for set SENSOR and time  0.2140625E-01

      2895  2.321578E-01 -4.578353E-01  2.373517E+01

 displacements (vx,vy,vz) for set SENSOR and time  0.2156250E-01

      2895  2.583990E-01 -4.287269E-01  2.170680E+01

 displacements (vx,vy,vz) for set SENSOR and time  0.2171875E-01

      2895  2.869984E-01 -3.824997E-01  1.997603E+01

 displacements (vx,vy,vz) for set SENSOR and time  0.2187500E-01

      2895  3.128416E-01 -3.256536E-01  1.877797E+01

 displacements (vx,vy,vz) for set SENSOR and time  0.2203125E-01

      2895  3.312660E-01 -2.666033E-01  1.824176E+01

 displacements (vx,vy,vz) for set SENSOR and time  0.2218750E-01

      2895  3.388110E-01 -2.142468E-01  1.836752E+01

 displacements (vx,vy,vz) for set SENSOR and time  0.2234375E-01

      2895  3.337308E-01 -1.764390E-01  1.903266E+01

 displacements (vx,vy,vz) for set SENSOR and time  0.2250000E-01

      2895  3.162082E-01 -1.586421E-01  2.002488E+01

 displacements (vx,vy,vz) for set SENSOR and time  0.2265625E-01

      2895  2.882617E-01 -1.629889E-01  2.109286E+01

 displacements (vx,vy,vz) for set SENSOR and time  0.2281250E-01

      2895  2.533888E-01 -1.879240E-01  2.200204E+01

 displacements (vx,vy,vz) for set SENSOR and time  0.2296875E-01

      2895  2.160251E-01 -2.284817E-01  2.258198E+01

 displacements (vx,vy,vz) for set SENSOR and time  0.2312500E-01

      2895  1.809158E-01 -2.771456E-01  2.275467E+01

 displacements (vx,vy,vz) for set SENSOR and time  0.2328125E-01

      2895  1.524978E-01 -3.251347E-01  2.253824E+01

 displacements (vx,vy,vz) for set SENSOR and time  0.2343750E-01

      2895  1.343709E-01 -3.638847E-01  2.202679E+01

 displacements (vx,vy,vz) for set SENSOR and time  0.2359375E-01

      2895  1.289135E-01 -3.864662E-01  2.135319E+01

 displacements (vx,vy,vz) for set SENSOR and time  0.2375000E-01

      2895  1.370641E-01 -3.886928E-01  2.064535E+01

 displacements (vx,vy,vz) for set SENSOR and time  0.2390625E-01

      2895  1.582655E-01 -3.697391E-01  1.998802E+01

 displacements (vx,vy,vz) for set SENSOR and time  0.2406250E-01

      2895  1.905513E-01 -3.321733E-01  1.939999E+01

 displacements (vx,vy,vz) for set SENSOR and time  0.2421875E-01

      2895  2.307422E-01 -2.814187E-01  1.883240E+01

 displacements (vx,vy,vz) for set SENSOR and time  0.2437500E-01

      2895  2.747251E-01 -2.247584E-01  1.818799E+01

 displacements (vx,vy,vz) for set SENSOR and time  0.2453125E-01

      2895  3.177881E-01 -1.700737E-01  1.735565E+01

 displacements (vx,vy,vz) for set SENSOR and time  0.2468750E-01

      2895  3.549977E-01 -1.245474E-01  1.625065E+01

 displacements (vx,vy,vz) for set SENSOR and time  0.2484375E-01

      2895  3.816043E-01 -9.355799E-02  1.484919E+01

 displacements (vx,vy,vz) for set SENSOR and time  0.2500000E-01

      2895  3.934614E-01 -7.994957E-02  1.320772E+01

 displacements (vx,vy,vz) for set SENSOR and time  0.2515625E-01

      2895  3.874380E-01 -8.378056E-02  1.146112E+01

 displacements (vx,vy,vz) for set SENSOR and time  0.2531250E-01

      2895  3.617899E-01 -1.025658E-01  9.799269E+00

 displacements (vx,vy,vz) for set SENSOR and time  0.2546875E-01

      2895  3.164458E-01 -1.319323E-01  8.427295E+00

 displacements (vx,vy,vz) for set SENSOR and time  0.2562500E-01

      2895  2.531577E-01 -1.665380E-01  7.518779E+00

 displacements (vx,vy,vz) for set SENSOR and time  0.2578125E-01

      2895  1.754700E-01 -2.010625E-01  7.173336E+00

 displacements (vx,vy,vz) for set SENSOR and time  0.2593750E-01

      2895  8.847462E-02 -2.310797E-01  7.389016E+00

 displacements (vx,vy,vz) for set SENSOR and time  0.2609375E-01

      2895 -1.648764E-03 -2.536549E-01  8.056538E+00

 displacements (vx,vy,vz) for set SENSOR and time  0.2625000E-01

      2895 -8.827789E-02 -2.675809E-01  8.977192E+00

 displacements (vx,vy,vz) for set SENSOR and time  0.2640625E-01

      2895 -1.651088E-01 -2.732408E-01  9.900605E+00

 displacements (vx,vy,vz) for set SENSOR and time  0.2656250E-01

      2895 -2.269344E-01 -2.721687E-01  1.057389E+01

 displacements (vx,vy,vz) for set SENSOR and time  0.2671875E-01

      2895 -2.703250E-01 -2.664338E-01  1.079104E+01

 displacements (vx,vy,vz) for set SENSOR and time  0.2687500E-01

      2895 -2.940984E-01 -2.580047E-01  1.043145E+01

 displacements (vx,vy,vz) for set SENSOR and time  0.2703125E-01

      2895 -2.994905E-01 -2.482429E-01  9.479278E+00

 displacements (vx,vy,vz) for set SENSOR and time  0.2718750E-01

      2895 -2.899795E-01 -2.376337E-01  8.019674E+00

 displacements (vx,vy,vz) for set SENSOR and time  0.2734375E-01

      2895 -2.707735E-01 -2.258019E-01  6.213752E+00

 displacements (vx,vy,vz) for set SENSOR and time  0.2750000E-01

      2895 -2.480267E-01 -2.117878E-01  4.258750E+00

 displacements (vx,vy,vz) for set SENSOR and time  0.2765625E-01

      2895 -2.279027E-01 -1.944953E-01  2.343264E+00

 displacements (vx,vy,vz) for set SENSOR and time  0.2781250E-01

      2895 -2.156303E-01 -1.731852E-01  6.081675E-01

 displacements (vx,vy,vz) for set SENSOR and time  0.2796875E-01

      2895 -2.147104E-01 -1.478748E-01 -8.779367E-01

 displacements (vx,vy,vz) for set SENSOR and time  0.2812500E-01

      2895 -2.264036E-01 -1.195337E-01 -2.123701E+00

 displacements (vx,vy,vz) for set SENSOR and time  0.2828125E-01

      2895 -2.495901E-01 -9.001258E-02 -3.200394E+00

 displacements (vx,vy,vz) for set SENSOR and time  0.2843750E-01

      2895 -2.810236E-01 -6.171374E-02 -4.212354E+00

 displacements (vx,vy,vz) for set SENSOR and time  0.2859375E-01

      2895 -3.159371E-01 -3.707573E-02 -5.260764E+00

 displacements (vx,vy,vz) for set SENSOR and time  0.2875000E-01

      2895 -3.488936E-01 -1.799687E-02 -6.410338E+00

 displacements (vx,vy,vz) for set SENSOR and time  0.2890625E-01

      2895 -3.747337E-01 -5.341963E-03 -7.667489E+00

 displacements (vx,vy,vz) for set SENSOR and time  0.2906250E-01

      2895 -3.894553E-01  1.336240E-03 -8.975391E+00

 displacements (vx,vy,vz) for set SENSOR and time  0.2921875E-01

      2895 -3.908753E-01  3.775788E-03 -1.022696E+01

 displacements (vx,vy,vz) for set SENSOR and time  0.2937500E-01

      2895 -3.789632E-01  4.668303E-03 -1.129218E+01

 displacements (vx,vy,vz) for set SENSOR and time  0.2953125E-01

      2895 -3.558005E-01  7.065315E-03 -1.205271E+01

 displacements (vx,vy,vz) for set SENSOR and time  0.2968750E-01

      2895 -3.251837E-01  1.365296E-02 -1.243472E+01

 displacements (vx,vy,vz) for set SENSOR and time  0.2984375E-01

      2895 -2.919554E-01  2.605872E-02 -1.243171E+01

 displacements (vx,vy,vz) for set SENSOR and time  0.3000000E-01

      2895 -2.611899E-01  4.435617E-02 -1.211132E+01

 displacements (vx,vy,vz) for set SENSOR and time  0.3015625E-01

      2895 -2.373812E-01  6.689790E-02 -1.160442E+01

 displacements (vx,vy,vz) for set SENSOR and time  0.3031250E-01

      2895 -2.237730E-01  9.053863E-02 -1.107875E+01

 displacements (vx,vy,vz) for set SENSOR and time  0.3046875E-01

      2895 -2.219339E-01  1.112255E-01 -1.070355E+01

 displacements (vx,vy,vz) for set SENSOR and time  0.3062500E-01

      2895 -2.316324E-01  1.248482E-01 -1.061341E+01

 displacements (vx,vy,vz) for set SENSOR and time  0.3078125E-01

      2895 -2.510043E-01  1.281768E-01 -1.087980E+01

 displacements (vx,vy,vz) for set SENSOR and time  0.3093750E-01

      2895 -2.769562E-01  1.196876E-01 -1.149673E+01

 displacements (vx,vy,vz) for set SENSOR and time  0.3109375E-01

      2895 -3.057094E-01  1.000890E-01 -1.238363E+01

 displacements (vx,vy,vz) for set SENSOR and time  0.3125000E-01

      2895 -3.333728E-01  7.241546E-02 -1.340423E+01

 displacements (vx,vy,vz) for set SENSOR and time  0.3140625E-01

      2895 -3.564450E-01  4.164307E-02 -1.439665E+01

 displacements (vx,vy,vz) for set SENSOR and time  0.3156250E-01

      2895 -3.721700E-01  1.387896E-02 -1.520738E+01

 displacements (vx,vy,vz) for set SENSOR and time  0.3171875E-01

      2895 -3.787145E-01 -4.733310E-03 -1.572124E+01

 displacements (vx,vy,vz) for set SENSOR and time  0.3187500E-01

      2895 -3.751737E-01 -9.184984E-03 -1.588052E+01

 displacements (vx,vy,vz) for set SENSOR and time  0.3203125E-01

      2895 -3.614498E-01  3.379602E-03 -1.568985E+01

 displacements (vx,vy,vz) for set SENSOR and time  0.3218750E-01

      2895 -3.380632E-01  3.300367E-02 -1.520631E+01

 displacements (vx,vy,vz) for set SENSOR and time  0.3234375E-01

      2895 -3.059624E-01  7.675791E-02 -1.451857E+01

 displacements (vx,vy,vz) for set SENSOR and time  0.3250000E-01

      2895 -2.663770E-01  1.291247E-01 -1.372092E+01

 displacements (vx,vy,vz) for set SENSOR and time  0.3265625E-01

      2895 -2.207392E-01  1.828664E-01 -1.288909E+01

 displacements (vx,vy,vz) for set SENSOR and time  0.3281250E-01

      2895 -1.706626E-01  2.302243E-01 -1.206422E+01

 displacements (vx,vy,vz) for set SENSOR and time  0.3296875E-01

      2895 -1.179481E-01  2.642288E-01 -1.124858E+01

 displacements (vx,vy,vz) for set SENSOR and time  0.3312500E-01

      2895 -6.457241E-02  2.798820E-01 -1.041361E+01

 displacements (vx,vy,vz) for set SENSOR and time  0.3328125E-01

      2895 -1.262081E-02  2.749959E-01 -9.517603E+00

 displacements (vx,vy,vz) for set SENSOR and time  0.3343750E-01

      2895  3.585890E-02  2.505392E-01 -8.527595E+00

 displacements (vx,vy,vz) for set SENSOR and time  0.3359375E-01

      2895  7.907306E-02  2.104327E-01 -7.439192E+00

 displacements (vx,vy,vz) for set SENSOR and time  0.3375000E-01

      2895  1.157344E-01  1.608419E-01 -6.288460E+00

 displacements (vx,vy,vz) for set SENSOR and time  0.3390625E-01

      2895  1.452922E-01  1.091024E-01 -5.152167E+00

 displacements (vx,vy,vz) for set SENSOR and time  0.3406250E-01

      2895  1.680743E-01  6.247732E-02 -4.135683E+00

 displacements (vx,vy,vz) for set SENSOR and time  0.3421875E-01

      2895  1.852867E-01  2.697208E-02 -3.351113E+00

 displacements (vx,vy,vz) for set SENSOR and time  0.3437500E-01

      2895  1.988425E-01  6.412510E-03 -2.890822E+00

 displacements (vx,vy,vz) for set SENSOR and time  0.3453125E-01

      2895  2.110299E-01  1.936664E-03 -2.802883E+00

 displacements (vx,vy,vz) for set SENSOR and time  0.3468750E-01

      2895  2.240714E-01  1.197202E-02 -3.074676E+00

 displacements (vx,vy,vz) for set SENSOR and time  0.3484375E-01

      2895  2.396582E-01  3.267886E-02 -3.629065E+00

 displacements (vx,vy,vz) for set SENSOR and time  0.3500000E-01

      2895  2.585587E-01  5.875935E-02 -4.334668E+00

 displacements (vx,vy,vz) for set SENSOR and time  0.3515625E-01

      2895  2.803940E-01  8.447191E-02 -5.028404E+00

 displacements (vx,vy,vz) for set SENSOR and time  0.3531250E-01

      2895  3.036450E-01  1.046626E-01 -5.545631E+00

 displacements (vx,vy,vz) for set SENSOR and time  0.3546875E-01

      2895  3.259068E-01  1.156324E-01 -5.751363E+00

 displacements (vx,vy,vz) for set SENSOR and time  0.3562500E-01

      2895  3.443540E-01  1.156976E-01 -5.565784E+00

 displacements (vx,vy,vz) for set SENSOR and time  0.3578125E-01

      2895  3.563277E-01  1.053618E-01 -4.978540E+00

 displacements (vx,vy,vz) for set SENSOR and time  0.3593750E-01

      2895  3.599263E-01  8.709140E-02 -4.048846E+00

 displacements (vx,vy,vz) for set SENSOR and time  0.3609375E-01

      2895  3.544698E-01  6.475367E-02 -2.891593E+00

 displacements (vx,vy,vz) for set SENSOR and time  0.3625000E-01

      2895  3.407301E-01  4.283265E-02 -1.652738E+00

 displacements (vx,vy,vz) for set SENSOR and time  0.3640625E-01

      2895  3.208660E-01  2.557047E-02 -4.794773E-01

 displacements (vx,vy,vz) for set SENSOR and time  0.3656250E-01

      2895  2.980627E-01  1.618563E-02  5.082919E-01

 displacements (vx,vy,vz) for set SENSOR and time  0.3671875E-01

      2895  2.759402E-01  1.629975E-02  1.239287E+00

 displacements (vx,vy,vz) for set SENSOR and time  0.3687500E-01

      2895  2.578486E-01  2.566222E-02  1.700806E+00

 displacements (vx,vy,vz) for set SENSOR and time  0.3703125E-01

      2895  2.461991E-01  4.220813E-02  1.935904E+00

 displacements (vx,vy,vz) for set SENSOR and time  0.3718750E-01

      2895  2.419745E-01  6.242723E-02  2.029212E+00

 displacements (vx,vy,vz) for set SENSOR and time  0.3734375E-01

      2895  2.445310E-01  8.197123E-02  2.085221E+00

 displacements (vx,vy,vz) for set SENSOR and time  0.3750000E-01

      2895  2.517434E-01  9.639031E-02  2.204274E+00

 displacements (vx,vy,vz) for set SENSOR and time  0.3765625E-01

      2895  2.604712E-01  1.018730E-01  2.461644E+00

 displacements (vx,vy,vz) for set SENSOR and time  0.3781250E-01

      2895  2.672553E-01  9.586780E-02  2.894009E+00

 displacements (vx,vy,vz) for set SENSOR and time  0.3796875E-01

      2895  2.691011E-01  7.748971E-02  3.495636E+00

 displacements (vx,vy,vz) for set SENSOR and time  0.3812500E-01

      2895  2.641815E-01  4.765235E-02  4.224241E+00

 displacements (vx,vy,vz) for set SENSOR and time  0.3828125E-01

      2895  2.523070E-01  8.914757E-03  5.014286E+00

 displacements (vx,vy,vz) for set SENSOR and time  0.3843750E-01

      2895  2.350546E-01 -3.492244E-02  5.793977E+00

 displacements (vx,vy,vz) for set SENSOR and time  0.3859375E-01

      2895  2.155165E-01 -7.939697E-02  6.501723E+00

 displacements (vx,vy,vz) for set SENSOR and time  0.3875000E-01

      2895  1.977109E-01 -1.200414E-01  7.098299E+00

 displacements (vx,vy,vz) for set SENSOR and time  0.3890625E-01

      2895  1.857646E-01 -1.530087E-01  7.572355E+00

 displacements (vx,vy,vz) for set SENSOR and time  0.3906250E-01

      2895  1.830287E-01 -1.755700E-01  7.938686E+00