
 displacements (vx,vy,vz) for set SENSOR and time  0.1562500E-03

      2895  2.874025E-02 -2.845353E-02  3.707967E-02

 displacements (vx,vy,vz) for set SENSOR and time  0.3125000E-03

      2895  1.685540E-01 -1.679544E-01  2.962671E-01

 displacements (vx,vy,vz) for set SENSOR and time  0.4687500E-03

      2895  3.192853E-01 -3.230626E-01  9.329763E-01

 displacements (vx,vy,vz) for set SENSOR and time  0.6250000E-03

      2895  4.384290E-01 -4.542835E-01  2.172898E+00

 displacements (vx,vy,vz) for set SENSOR and time  0.7812500E-03

      2895  5.176018E-01 -5.524777E-01  4.169928E+00

 displacements (vx,vy,vz) for set SENSOR and time  0.9375000E-03

      2895  5.548287E-01 -6.111863E-01  6.947837E+00

 displacements (vx,vy,vz) for set SENSOR and time  0.1093750E-02

      2895  5.544427E-01 -6.274318E-01  1.040231E+01

 displacements (vx,vy,vz) for set SENSOR and time  0.1250000E-02

      2895  5.258276E-01 -6.023112E-01  1.432619E+01

 displacements (vx,vy,vz) for set SENSOR and time  0.1406250E-02

      2895  4.813004E-01 -5.412020E-01  1.845169E+01

 displacements (vx,vy,vz) for set SENSOR and time  0.1562500E-02

      2895  4.335926E-01 -4.534347E-01  2.249987E+01

 displacements (vx,vy,vz) for set SENSOR and time  0.1718750E-02

      2895  3.934510E-01 -3.513645E-01  2.622709E+01

 displacements (vx,vy,vz) for set SENSOR and time  0.1875000E-02

      2895  3.678221E-01 -2.489052E-01  2.945915E+01

 displacements (vx,vy,vz) for set SENSOR and time  0.2031250E-02

      2895  3.589444E-01 -1.597210E-01  3.210735E+01

 displacements (vx,vy,vz) for set SENSOR and time  0.2187500E-02

      2895  3.644648E-01 -9.537774E-02  3.416505E+01

 displacements (vx,vy,vz) for set SENSOR and time  0.2343750E-02

      2895  3.784794E-01 -6.379868E-02  3.568781E+01

 displacements (vx,vy,vz) for set SENSOR and time  0.2500000E-02

      2895  3.932171E-01 -6.832870E-02  3.676394E+01

 displacements (vx,vy,vz) for set SENSOR and time  0.2656250E-02

      2895  4.009739E-01 -1.075954E-01  3.748362E+01

 displacements (vx,vy,vz) for set SENSOR and time  0.2812500E-02

      2895  3.958816E-01 -1.761838E-01  3.791490E+01

 displacements (vx,vy,vz) for set SENSOR and time  0.2968750E-02

      2895  3.751655E-01 -2.659597E-01  3.809224E+01

 displacements (vx,vy,vz) for set SENSOR and time  0.3125000E-02

      2895  3.396737E-01 -3.677293E-01  3.801971E+01

 displacements (vx,vy,vz) for set SENSOR and time  0.3281250E-02

      2895  2.936311E-01 -4.728510E-01  3.768704E+01

 displacements (vx,vy,vz) for set SENSOR and time  0.3437500E-02

      2895  2.437303E-01 -5.744392E-01  3.709303E+01

 displacements (vx,vy,vz) for set SENSOR and time  0.3593750E-02

      2895  1.977950E-01 -6.679147E-01  3.626899E+01

 displacements (vx,vy,vz) for set SENSOR and time  0.3750000E-02

      2895  1.633132E-01 -7.508382E-01  3.529472E+01

 displacements (vx,vy,vz) for set SENSOR and time  0.3906250E-02

      2895  1.461337E-01 -8.221589E-01  3.430146E+01

 displacements (vx,vy,vz) for set SENSOR and time  0.4062500E-02

      2895  1.495526E-01 -8.811695E-01  3.345936E+01

 displacements (vx,vy,vz) for set SENSOR and time  0.4218750E-02

      2895  1.739177E-01 -9.265459E-01  3.295129E+01

 displacements (vx,vy,vz) for set SENSOR and time  0.4375000E-02

      2895  2.167617E-01 -9.558181E-01  3.293827E+01

 displacements (vx,vy,vz) for set SENSOR and time  0.4531250E-02

      2895  2.733770E-01 -9.655049E-01  3.352429E+01

 displacements (vx,vy,vz) for set SENSOR and time  0.4687500E-02

      2895  3.376743E-01 -9.519416E-01  3.472893E+01

 displacements (vx,vy,vz) for set SENSOR and time  0.4843750E-02

      2895  4.031432E-01 -9.126233E-01  3.647486E+01

 displacements (vx,vy,vz) for set SENSOR and time  0.5000000E-02

      2895  4.637435E-01 -8.477046E-01  3.859401E+01

 displacements (vx,vy,vz) for set SENSOR and time  0.5156250E-02

      2895  5.145998E-01 -7.612130E-01  4.085241E+01

 displacements (vx,vy,vz) for set SENSOR and time  0.5312500E-02

      2895  5.524298E-01 -6.615558E-01  4.298918E+01

 displacements (vx,vy,vz) for set SENSOR and time  0.5468750E-02

      2895  5.756920E-01 -5.610466E-01  4.476223E+01

 displacements (vx,vy,vz) for set SENSOR and time  0.5625000E-02

      2895  5.844857E-01 -4.744022E-01  4.599154E+01

 displacements (vx,vy,vz) for set SENSOR and time  0.5781250E-02

      2895  5.802588E-01 -4.164172E-01  4.659115E+01

 displacements (vx,vy,vz) for set SENSOR and time  0.5937500E-02

      2895  5.653949E-01 -3.992484E-01  4.658363E+01

 displacements (vx,vy,vz) for set SENSOR and time  0.6093750E-02

      2895  5.427405E-01 -4.298732E-01  4.609430E+01

 displacements (vx,vy,vz) for set SENSOR and time  0.6250000E-02

      2895  5.151288E-01 -5.082932E-01  4.532674E+01

 displacements (vx,vy,vz) for set SENSOR and time  0.6406250E-02

      2895  4.849476E-01 -6.269280E-01  4.452517E+01

 displacements (vx,vy,vz) for set SENSOR and time  0.6562500E-02

      2895  4.537894E-01 -7.714065E-01  4.393132E+01

 displacements (vx,vy,vz) for set SENSOR and time  0.6718750E-02

      2895  4.222243E-01 -9.226764E-01  4.374471E+01

 displacements (vx,vy,vz) for set SENSOR and time  0.6875000E-02

      2895  3.897305E-01 -1.060069E+00  4.409367E+01

 displacements (vx,vy,vz) for set SENSOR and time  0.7031250E-02

      2895  3.548075E-01 -1.164750E+00  4.502174E+01

 displacements (vx,vy,vz) for set SENSOR and time  0.7187500E-02

      2895  3.152810E-01 -1.222901E+00  4.649057E+01

 displacements (vx,vy,vz) for set SENSOR and time  0.7343750E-02

      2895  2.687804E-01 -1.228027E+00  4.839674E+01

 displacements (vx,vy,vz) for set SENSOR and time  0.7500000E-02

      2895  2.133342E-01 -1.181971E+00  5.059703E+01

 displacements (vx,vy,vz) for set SENSOR and time  0.7656250E-02

      2895  1.479950E-01 -1.094456E+00  5.293558E+01

 displacements (vx,vy,vz) for set SENSOR and time  0.7812500E-02

      2895  7.338403E-02 -9.813046E-01  5.526649E+01

 displacements (vx,vy,vz) for set SENSOR and time  0.7968750E-02

      2895 -7.961768E-03 -8.616875E-01  5.746759E+01

 displacements (vx,vy,vz) for set SENSOR and time  0.8125000E-02

      2895 -9.153959E-02 -7.549597E-01  5.944366E+01

 displacements (vx,vy,vz) for set SENSOR and time  0.8281250E-02

      2895 -1.711815E-01 -6.776539E-01  6.112082E+01

 displacements (vx,vy,vz) for set SENSOR and time  0.8437500E-02

      2895 -2.397026E-01 -6.411481E-01  6.243592E+01

 displacements (vx,vy,vz) for set SENSOR and time  0.8593750E-02

      2895 -2.898239E-01 -6.503438E-01  6.332630E+01

 displacements (vx,vy,vz) for set SENSOR and time  0.8750000E-02

      2895 -3.152380E-01 -7.034779E-01  6.372477E+01

 displacements (vx,vy,vz) for set SENSOR and time  0.8906250E-02

      2895 -3.116456E-01 -7.929681E-01  6.356301E+01

 displacements (vx,vy,vz) for set SENSOR and time  0.9062500E-02

      2895 -2.775809E-01 -9.070234E-01  6.278390E+01

 displacements (vx,vy,vz) for set SENSOR and time  0.9218750E-02

      2895 -2.148705E-01 -1.031649E+00  6.136038E+01

 displacements (vx,vy,vz) for set SENSOR and time  0.9375000E-02

      2895 -1.286252E-01 -1.152674E+00  5.931581E+01

 displacements (vx,vy,vz) for set SENSOR and time  0.9531250E-02

      2895 -2.674371E-02 -1.257482E+00  5.673992E+01

 displacements (vx,vy,vz) for set SENSOR and time  0.9687500E-02

      2895  8.101159E-02 -1.336258E+00  5.379456E+01

 displacements (vx,vy,vz) for set SENSOR and time  0.9843750E-02

      2895  1.842301E-01 -1.382670E+00  5.070559E+01

 displacements (vx,vy,vz) for set SENSOR and time  0.1000000E-01

      2895  2.731738E-01 -1.394045E+00  4.774018E+01

 displacements (vx,vy,vz) for set SENSOR and time  0.1015625E-01

      2895  3.399994E-01 -1.371134E+00  4.517226E+01

 displacements (vx,vy,vz) for set SENSOR and time  0.1031250E-01

      2895  3.796971E-01 -1.317627E+00  4.324205E+01

 displacements (vx,vy,vz) for set SENSOR and time  0.1046875E-01

      2895  3.906094E-01 -1.239529E+00  4.211734E+01

 displacements (vx,vy,vz) for set SENSOR and time  0.1062500E-01

      2895  3.744662E-01 -1.144491E+00  4.186438E+01

 displacements (vx,vy,vz) for set SENSOR and time  0.1078125E-01

      2895  3.359480E-01 -1.041140E+00  4.243478E+01

 displacements (vx,vy,vz) for set SENSOR and time  0.1093750E-01

      2895  2.818655E-01 -9.384102E-01  4.367151E+01

 displacements (vx,vy,vz) for set SENSOR and time  0.1109375E-01

      2895  2.200953E-01 -8.448762E-01  4.533365E+01

 displacements (vx,vy,vz) for set SENSOR and time  0.1125000E-01

      2895  1.584410E-01 -7.681118E-01  4.713515E+01

 displacements (vx,vy,vz) for set SENSOR and time  0.1140625E-01

      2895  1.035907E-01 -7.140931E-01  4.879056E+01

 displacements (vx,vy,vz) for set SENSOR and time  0.1156250E-01

      2895  6.031510E-02 -6.867152E-01  5.005889E+01

 displacements (vx,vy,vz) for set SENSOR and time  0.1171875E-01

      2895  3.100588E-02 -6.874853E-01  5.077752E+01

 displacements (vx,vy,vz) for set SENSOR and time  0.1187500E-01

      2895  1.559807E-02 -7.154504E-01  5.088028E+01

 displacements (vx,vy,vz) for set SENSOR and time  0.1203125E-01

      2895  1.186120E-02 -7.673782E-01  5.039715E+01

 displacements (vx,vy,vz) for set SENSOR and time  0.1218750E-01

      2895  1.599277E-02 -8.381702E-01  4.943719E+01

 displacements (vx,vy,vz) for set SENSOR and time  0.1234375E-01

      2895  2.340814E-02 -9.214367E-01  4.815925E+01

 displacements (vx,vy,vz) for set SENSOR and time  0.1250000E-01

      2895  2.959880E-02 -1.010136E+00  4.673785E+01

 displacements (vx,vy,vz) for set SENSOR and time  0.1265625E-01

      2895  3.092786E-02 -1.097175E+00  4.533152E+01

 displacements (vx,vy,vz) for set SENSOR and time  0.1281250E-01

      2895  2.524590E-02 -1.175892E+00  4.406013E+01

 displacements (vx,vy,vz) for set SENSOR and time  0.1296875E-01

      2895  1.224115E-02 -1.240389E+00  4.299505E+01

 displacements (vx,vy,vz) for set SENSOR and time  0.1312500E-01

      2895 -6.520554E-03 -1.285728E+00  4.216259E+01

 displacements (vx,vy,vz) for set SENSOR and time  0.1328125E-01

      2895 -2.786271E-02 -1.308052E+00  4.155786E+01

 displacements (vx,vy,vz) for set SENSOR and time  0.1343750E-01

      2895 -4.752206E-02 -1.304710E+00  4.116406E+01

 displacements (vx,vy,vz) for set SENSOR and time  0.1359375E-01

      2895 -6.084016E-02 -1.274437E+00  4.097084E+01

 displacements (vx,vy,vz) for set SENSOR and time  0.1375000E-01

      2895 -6.350806E-02 -1.217622E+00  4.098616E+01

 displacements (vx,vy,vz) for set SENSOR and time  0.1390625E-01

      2895 -5.224272E-02 -1.136619E+00  4.123813E+01

 displacements (vx,vy,vz) for set SENSOR and time  0.1406250E-01

      2895 -2.528766E-02 -1.035994E+00  4.176605E+01

 displacements (vx,vy,vz) for set SENSOR and time  0.1421875E-01

      2895  1.733761E-02 -9.225827E-01  4.260310E+01

 displacements (vx,vy,vz) for set SENSOR and time  0.1437500E-01

      2895  7.386850E-02 -8.052375E-01  4.375551E+01

 displacements (vx,vy,vz) for set SENSOR and time  0.1453125E-01

      2895  1.410846E-01 -6.941720E-01  4.518432E+01

 displacements (vx,vy,vz) for set SENSOR and time  0.1468750E-01

      2895  2.147887E-01 -5.999189E-01  4.679550E+01

 displacements (vx,vy,vz) for set SENSOR and time  0.1484375E-01

      2895  2.903751E-01 -5.320073E-01  4.844247E+01

 displacements (vx,vy,vz) for set SENSOR and time  0.1500000E-01

      2895  3.633753E-01 -4.975622E-01  4.994215E+01

 displacements (vx,vy,vz) for set SENSOR and time  0.1515625E-01

      2895  4.298838E-01 -5.000860E-01  5.110229E+01

 displacements (vx,vy,vz) for set SENSOR and time  0.1531250E-01

      2895  4.867988E-01 -5.386838E-01  5.175519E+01

 displacements (vx,vy,vz) for set SENSOR and time  0.1546875E-01

      2895  5.318662E-01 -6.079327E-01  5.179078E+01

 displacements (vx,vy,vz) for set SENSOR and time  0.1562500E-01

      2895  5.635591E-01 -6.984831E-01  5.118175E+01

 displacements (vx,vy,vz) for set SENSOR and time  0.1578125E-01

      2895  5.808729E-01 -7.983335E-01  4.999497E+01

 displacements (vx,vy,vz) for set SENSOR and time  0.1593750E-01

      2895  5.831304E-01 -8.945785E-01  4.838575E+01

 displacements (vx,vy,vz) for set SENSOR and time  0.1609375E-01

      2895  5.698878E-01 -9.753271E-01  4.657523E+01

 displacements (vx,vy,vz) for set SENSOR and time  0.1625000E-01

      2895  5.409986E-01 -1.031440E+00  4.481459E+01

 displacements (vx,vy,vz) for set SENSOR and time  0.1640625E-01

      2895  4.968419E-01 -1.057767E+00  4.334263E+01

 displacements (vx,vy,vz) for set SENSOR and time  0.1656250E-01

      2895  4.386634E-01 -1.053676E+00  4.234478E+01

 displacements (vx,vy,vz) for set SENSOR and time  0.1671875E-01

      2895  3.689295E-01 -1.022790E+00  4.192144E+01

 displacements (vx,vy,vz) for set SENSOR and time  0.1687500E-01

      2895  2.915712E-01 -9.720390E-01  4.207163E+01

 displacements (vx,vy,vz) for set SENSOR and time  0.1703125E-01

      2895  2.119959E-01 -9.102382E-01  4.269530E+01

 displacements (vx,vy,vz) for set SENSOR and time  0.1718750E-01

      2895  1.367919E-01 -8.465166E-01  4.361357E+01

 displacements (vx,vy,vz) for set SENSOR and time  0.1734375E-01

      2895  7.310741E-02 -7.889047E-01  4.460303E+01

 displacements (vx,vy,vz) for set SENSOR and time  0.1750000E-01

      2895  2.777229E-02 -7.433404E-01  4.543745E+01

 displacements (vx,vy,vz) for set SENSOR and time  0.1765625E-01

      2895  6.295504E-03 -7.132314E-01  4.592905E+01

 displacements (vx,vy,vz) for set SENSOR and time  0.1781250E-01

      2895  1.192398E-02 -6.995720E-01  4.596166E+01

 displacements (vx,vy,vz) for set SENSOR and time  0.1796875E-01

      2895  4.495676E-02 -7.014842E-01  4.550997E+01

 displacements (vx,vy,vz) for set SENSOR and time  0.1812500E-01

      2895  1.024768E-01 -7.169670E-01  4.464190E+01

 displacements (vx,vy,vz) for set SENSOR and time  0.1828125E-01

      2895  1.785914E-01 -7.436161E-01  4.350439E+01

 displacements (vx,vy,vz) for set SENSOR and time  0.1843750E-01

      2895  2.651773E-01 -7.791187E-01  4.229589E+01

 displacements (vx,vy,vz) for set SENSOR and time  0.1859375E-01

      2895  3.530237E-01 -8.214175E-01  4.123139E+01

 displacements (vx,vy,vz) for set SENSOR and time  0.1875000E-01

      2895  4.331843E-01 -8.685572E-01  4.050661E+01

 displacements (vx,vy,vz) for set SENSOR and time  0.1890625E-01

      2895  4.983017E-01 -9.183277E-01  4.026785E+01

 displacements (vx,vy,vz) for set SENSOR and time  0.1906250E-01

      2895  5.436639E-01 -9.678886E-01  4.059248E+01

 displacements (vx,vy,vz) for set SENSOR and time  0.1921875E-01

      2895  5.678037E-01 -1.013565E+00  4.148267E+01

 displacements (vx,vy,vz) for set SENSOR and time  0.1937500E-01

      2895  5.725369E-01 -1.050962E+00  4.287226E+01

 displacements (vx,vy,vz) for set SENSOR and time  0.1953125E-01

      2895  5.624416E-01 -1.075439E+00  4.464428E+01

 displacements (vx,vy,vz) for set SENSOR and time  0.1968750E-01

      2895  5.438886E-01 -1.082893E+00  4.665473E+01

 displacements (vx,vy,vz) for set SENSOR and time  0.1984375E-01

      2895  5.238138E-01 -1.070671E+00  4.875751E+01

 displacements (vx,vy,vz) for set SENSOR and time  0.2000000E-01

      2895  5.084645E-01 -1.038400E+00  5.082562E+01

 displacements (vx,vy,vz) for set SENSOR and time  0.2015625E-01

      2895  5.023466E-01 -9.885054E-01  5.276507E+01

 displacements (vx,vy,vz) for set SENSOR and time  0.2031250E-01

      2895  5.075499E-01 -9.262420E-01  5.451959E+01

 displacements (vx,vy,vz) for set SENSOR and time  0.2046875E-01

      2895  5.235437E-01 -8.591830E-01  5.606655E+01

 displacements (vx,vy,vz) for set SENSOR and time  0.2062500E-01

      2895  5.474447E-01 -7.962195E-01  5.740602E+01

 displacements (vx,vy,vz) for set SENSOR and time  0.2078125E-01

      2895  5.746665E-01 -7.462448E-01  5.854655E+01

 displacements (vx,vy,vz) for set SENSOR and time  0.2093750E-01

      2895  5.998026E-01 -7.167722E-01  5.949130E+01

 displacements (vx,vy,vz) for set SENSOR and time  0.2109375E-01

      2895  6.175643E-01 -7.127514E-01  6.022813E+01

 displacements (vx,vy,vz) for set SENSOR and time  0.2125000E-01

      2895  6.236100E-01 -7.358084E-01  6.072611E+01

 displacements (vx,vy,vz) for set SENSOR and time  0.2140625E-01

      2895  6.151431E-01 -7.840394E-01  6.093903E+01

 displacements (vx,vy,vz) for set SENSOR and time  0.2156250E-01

      2895  5.912158E-01 -8.523740E-01  6.081553E+01

 displacements (vx,vy,vz) for set SENSOR and time  0.2171875E-01

      2895  5.527401E-01 -9.334070E-01  6.031318E+01

 displacements (vx,vy,vz) for set SENSOR and time  0.2187500E-01

      2895  5.022570E-01 -1.018511E+00  5.941366E+01

 displacements (vx,vy,vz) for set SENSOR and time  0.2203125E-01

      2895  4.435465E-01 -1.099009E+00  5.813541E+01

 displacements (vx,vy,vz) for set SENSOR and time  0.2218750E-01

      2895  3.811625E-01 -1.167196E+00  5.654079E+01

 displacements (vx,vy,vz) for set SENSOR and time  0.2234375E-01

      2895  3.199643E-01 -1.217061E+00  5.473572E+01

 displacements (vx,vy,vz) for set SENSOR and time  0.2250000E-01

      2895  2.646902E-01 -1.244662E+00  5.286125E+01

 displacements (vx,vy,vz) for set SENSOR and time  0.2265625E-01

      2895  2.195879E-01 -1.248159E+00  5.107797E+01

 displacements (vx,vy,vz) for set SENSOR and time  0.2281250E-01

      2895  1.881003E-01 -1.227623E+00  4.954562E+01

 displacements (vx,vy,vz) for set SENSOR and time  0.2296875E-01

      2895  1.725992E-01 -1.184734E+00  4.840102E+01

 displacements (vx,vy,vz) for set SENSOR and time  0.2312500E-01

      2895  1.741675E-01 -1.122475E+00  4.773803E+01

 displacements (vx,vy,vz) for set SENSOR and time  0.2328125E-01

      2895  1.924466E-01 -1.044904E+00  4.759267E+01

 displacements (vx,vy,vz) for set SENSOR and time  0.2343750E-01

      2895  2.255836E-01 -9.570042E-01  4.793609E+01

 displacements (vx,vy,vz) for set SENSOR and time  0.2359375E-01

      2895  2.703180E-01 -8.645573E-01  4.867630E+01

 displacements (vx,vy,vz) for set SENSOR and time  0.2375000E-01

      2895  3.222399E-01 -7.739667E-01  4.966876E+01

 displacements (vx,vy,vz) for set SENSOR and time  0.2390625E-01

      2895  3.762285E-01 -6.919413E-01  5.073408E+01

 displacements (vx,vy,vz) for set SENSOR and time  0.2406250E-01

      2895  4.270365E-01 -6.249957E-01  5.168029E+01

 displacements (vx,vy,vz) for set SENSOR and time  0.2421875E-01

      2895  4.699527E-01 -5.787812E-01  5.232655E+01

 displacements (vx,vy,vz) for set SENSOR and time  0.2437500E-01

      2895  5.014335E-01 -5.573301E-01  5.252493E+01

 displacements (vx,vy,vz) for set SENSOR and time  0.2453125E-01

      2895  5.195884E-01 -5.623485E-01  5.217750E+01

 displacements (vx,vy,vz) for set SENSOR and time  0.2468750E-01

      2895  5.244122E-01 -5.927185E-01  5.124670E+01

 displacements (vx,vy,vz) for set SENSOR and time  0.2484375E-01

      2895  5.176972E-01 -6.443510E-01  4.975797E+01

 displacements (vx,vy,vz) for set SENSOR and time  0.2500000E-01

      2895  5.026219E-01 -7.104761E-01  4.779500E+01

 displacements (vx,vy,vz) for set SENSOR and time  0.2515625E-01

      2895  4.830762E-01 -7.823717E-01  4.548848E+01

 displacements (vx,vy,vz) for set SENSOR and time  0.2531250E-01

      2895  4.628472E-01 -8.504432E-01  4.300042E+01

 displacements (vx,vy,vz) for set SENSOR and time  0.2546875E-01

      2895  4.448266E-01 -9.054875E-01  4.050610E+01

 displacements (vx,vy,vz) for set SENSOR and time  0.2562500E-01

      2895  4.304058E-01 -9.399319E-01  3.817599E+01

 displacements (vx,vy,vz) for set SENSOR and time  0.2578125E-01

      2895  4.191924E-01 -9.488395E-01  3.615962E+01

 displacements (vx,vy,vz) for set SENSOR and time  0.2593750E-01

      2895  4.091204E-01 -9.305147E-01  3.457275E+01

 displacements (vx,vy,vz) for set SENSOR and time  0.2609375E-01

      2895  3.969436E-01 -8.866202E-01  3.348897E+01

 displacements (vx,vy,vz) for set SENSOR and time  0.2625000E-01

      2895  3.790187E-01 -8.218107E-01  3.293589E+01

 displacements (vx,vy,vz) for set SENSOR and time  0.2640625E-01

      2895  3.522191E-01 -7.429713E-01  3.289595E+01

 displacements (vx,vy,vz) for set SENSOR and time  0.2656250E-01

      2895  3.147887E-01 -6.582150E-01  3.331121E+01

 displacements (vx,vy,vz) for set SENSOR and time  0.2671875E-01

      2895  2.669517E-01 -5.758164E-01  3.409145E+01

 displacements (vx,vy,vz) for set SENSOR and time  0.2687500E-01

      2895  2.111397E-01 -5.032471E-01  3.512456E+01

 displacements (vx,vy,vz) for set SENSOR and time  0.2703125E-01

      2895  1.517799E-01 -4.464368E-01  3.628816E+01

 displacements (vx,vy,vz) for set SENSOR and time  0.2718750E-01

      2895  9.467181E-02 -4.093199E-01  3.746146E+01

 displacements (vx,vy,vz) for set SENSOR and time  0.2734375E-01

      2895  4.607058E-02 -3.936691E-01  3.853611E+01

 displacements (vx,vy,vz) for set SENSOR and time  0.2750000E-01

      2895  1.165146E-02 -3.991678E-01  3.942512E+01

 displacements (vx,vy,vz) for set SENSOR and time  0.2765625E-01

      2895 -4.444882E-03 -4.236507E-01  4.006892E+01

 displacements (vx,vy,vz) for set SENSOR and time  0.2781250E-01

      2895 -3.042547E-04 -4.634405E-01  4.043794E+01

 displacements (vx,vy,vz) for set SENSOR and time  0.2796875E-01

      2895  2.345887E-02 -5.137291E-01  4.053145E+01

 displacements (vx,vy,vz) for set SENSOR and time  0.2812500E-01

      2895  6.383738E-02 -5.689782E-01  4.037299E+01

 displacements (vx,vy,vz) for set SENSOR and time  0.2828125E-01

      2895  1.159677E-01 -6.233373E-01  4.000306E+01

 displacements (vx,vy,vz) for set SENSOR and time  0.2843750E-01

      2895  1.739529E-01 -6.710882E-01  3.947026E+01

 displacements (vx,vy,vz) for set SENSOR and time  0.2859375E-01

      2895  2.318092E-01 -7.071178E-01  3.882233E+01

 displacements (vx,vy,vz) for set SENSOR and time  0.2875000E-01

      2895  2.843594E-01 -7.273990E-01  3.809865E+01

 displacements (vx,vy,vz) for set SENSOR and time  0.2890625E-01

      2895  3.279146E-01 -7.294341E-01  3.732541E+01

 displacements (vx,vy,vz) for set SENSOR and time  0.2906250E-01

      2895  3.606404E-01 -7.125921E-01  3.651418E+01

 displacements (vx,vy,vz) for set SENSOR and time  0.2921875E-01

      2895  3.825671E-01 -6.782644E-01  3.566399E+01

 displacements (vx,vy,vz) for set SENSOR and time  0.2937500E-01

      2895  3.952761E-01 -6.297802E-01  3.476634E+01

 displacements (vx,vy,vz) for set SENSOR and time  0.2953125E-01

      2895  4.013510E-01 -5.720571E-01  3.381175E+01

 displacements (vx,vy,vz) for set SENSOR and time  0.2968750E-01

      2895  4.037187E-01 -5.110138E-01  3.279629E+01

 displacements (vx,vy,vz) for set SENSOR and time  0.2984375E-01

      2895  4.050105E-01 -4.528246E-01  3.172648E+01

 displacements (vx,vy,vz) for set SENSOR and time  0.3000000E-01

      2895  4.070594E-01 -4.031323E-01  3.062134E+01

 displacements (vx,vy,vz) for set SENSOR and time  0.3015625E-01

      2895  4.106059E-01 -3.663553E-01  2.951091E+01

 displacements (vx,vy,vz) for set SENSOR and time  0.3031250E-01

      2895  4.152428E-01 -3.452073E-01  2.843169E+01

 displacements (vx,vy,vz) for set SENSOR and time  0.3046875E-01

      2895  4.195786E-01 -3.405077E-01  2.742003E+01

 displacements (vx,vy,vz) for set SENSOR and time  0.3062500E-01

      2895  4.215642E-01 -3.512980E-01  2.650519E+01

 displacements (vx,vy,vz) for set SENSOR and time  0.3078125E-01

      2895  4.189079E-01 -3.752140E-01  2.570392E+01

 displacements (vx,vy,vz) for set SENSOR and time  0.3093750E-01

      2895  4.094986E-01 -4.090124E-01  2.501821E+01

 displacements (vx,vy,vz) for set SENSOR and time  0.3109375E-01

      2895  3.917704E-01 -4.491211E-01  2.443702E+01

 displacements (vx,vy,vz) for set SENSOR and time  0.3125000E-01

      2895  3.649629E-01 -4.920909E-01  2.394194E+01

 displacements (vx,vy,vz) for set SENSOR and time  0.3140625E-01

      2895  3.292571E-01 -5.348618E-01  2.351542E+01

 displacements (vx,vy,vz) for set SENSOR and time  0.3156250E-01

      2895  2.857885E-01 -5.748183E-01  2.314981E+01

 displacements (vx,vy,vz) for set SENSOR and time  0.3171875E-01

      2895  2.365563E-01 -6.096717E-01  2.285438E+01

 displacements (vx,vy,vz) for set SENSOR and time  0.3187500E-01

      2895  1.842549E-01 -6.372598E-01  2.265844E+01

 displacements (vx,vy,vz) for set SENSOR and time  0.3203125E-01

      2895  1.320553E-01 -6.553809E-01  2.260873E+01

 displacements (vx,vy,vz) for set SENSOR and time  0.3218750E-01

      2895  8.335961E-02 -6.617683E-01  2.276096E+01

 displacements (vx,vy,vz) for set SENSOR and time  0.3234375E-01

      2895  4.154523E-02 -6.542714E-01  2.316661E+01

 displacements (vx,vy,vz) for set SENSOR and time  0.3250000E-01

      2895  9.711790E-03 -6.312426E-01  2.385739E+01

 displacements (vx,vy,vz) for set SENSOR and time  0.3265625E-01

      2895 -9.559493E-03 -5.920588E-01  2.483080E+01

 displacements (vx,vy,vz) for set SENSOR and time  0.3281250E-01

      2895 -1.442287E-02 -5.376487E-01  2.604016E+01

 displacements (vx,vy,vz) for set SENSOR and time  0.3296875E-01

      2895 -3.947775E-03 -4.708719E-01  2.739221E+01

 displacements (vx,vy,vz) for set SENSOR and time  0.3312500E-01

      2895  2.175529E-02 -3.966054E-01  2.875382E+01

 displacements (vx,vy,vz) for set SENSOR and time  0.3328125E-01

      2895  6.148018E-02 -3.214465E-01  2.996757E+01

 displacements (vx,vy,vz) for set SENSOR and time  0.3343750E-01

      2895  1.129564E-01 -2.530201E-01  3.087431E+01

 displacements (vx,vy,vz) for set SENSOR and time  0.3359375E-01

      2895  1.729748E-01 -1.989700E-01  3.133889E+01

 displacements (vx,vy,vz) for set SENSOR and time  0.3375000E-01

      2895  2.376051E-01 -1.657941E-01  3.127442E+01

 displacements (vx,vy,vz) for set SENSOR and time  0.3390625E-01

      2895  3.024931E-01 -1.577314E-01  3.066041E+01

 displacements (vx,vy,vz) for set SENSOR and time  0.3406250E-01

      2895  3.632123E-01 -1.759206E-01  2.955093E+01

 displacements (vx,vy,vz) for set SENSOR and time  0.3421875E-01

      2895  4.156368E-01 -2.180055E-01  2.807071E+01

 displacements (vx,vy,vz) for set SENSOR and time  0.3437500E-01

      2895  4.562979E-01 -2.782890E-01  2.639931E+01

 displacements (vx,vy,vz) for set SENSOR and time  0.3453125E-01

      2895  4.826866E-01 -3.484348E-01  2.474566E+01

 displacements (vx,vy,vz) for set SENSOR and time  0.3468750E-01

      2895  4.934692E-01 -4.186126E-01  2.331726E+01

 displacements (vx,vy,vz) for set SENSOR and time  0.3484375E-01

      2895  4.885922E-01 -4.789021E-01  2.228917E+01

 displacements (vx,vy,vz) for set SENSOR and time  0.3500000E-01

      2895  4.692657E-01 -5.207209E-01  2.177837E+01

 displacements (vx,vy,vz) for set SENSOR and time  0.3515625E-01

      2895  4.378260E-01 -5.380425E-01  2.182755E+01

 displacements (vx,vy,vz) for set SENSOR and time  0.3531250E-01

      2895  3.974917E-01 -5.282111E-01  2.240114E+01

 displacements (vx,vy,vz) for set SENSOR and time  0.3546875E-01

      2895  3.520401E-01 -4.922341E-01  2.339368E+01

 displacements (vx,vy,vz) for set SENSOR and time  0.3562500E-01

      2895  3.054376E-01 -4.345297E-01  2.464867E+01

 displacements (vx,vy,vz) for set SENSOR and time  0.3578125E-01

      2895  2.614652E-01 -3.621925E-01  2.598409E+01

 displacements (vx,vy,vz) for set SENSOR and time  0.3593750E-01

      2895  2.233797E-01 -2.839193E-01  2.721972E+01

 displacements (vx,vy,vz) for set SENSOR and time  0.3609375E-01

      2895  1.936470E-01 -2.087754E-01  2.820153E+01

 displacements (vx,vy,vz) for set SENSOR and time  0.3625000E-01

      2895  1.737797E-01 -1.449916E-01  2.881916E+01

 displacements (vx,vy,vz) for set SENSOR and time  0.3640625E-01

      2895  1.642926E-01 -9.896035E-02  2.901420E+01

 displacements (vx,vy,vz) for set SENSOR and time  0.3656250E-01

      2895  1.647799E-01 -7.454822E-02  2.877892E+01

 displacements (vx,vy,vz) for set SENSOR and time  0.3671875E-01

      2895  1.740994E-01 -7.278731E-02  2.814716E+01

 displacements (vx,vy,vz) for set SENSOR and time  0.3687500E-01

      2895  1.906331E-01 -9.194538E-02  2.718006E+01

 displacements (vx,vy,vz) for set SENSOR and time  0.3703125E-01

      2895  2.125843E-01 -1.279265E-01  2.595057E+01

 displacements (vx,vy,vz) for set SENSOR and time  0.3718750E-01

      2895  2.382655E-01 -1.749181E-01  2.452996E+01

 displacements (vx,vy,vz) for set SENSOR and time  0.3734375E-01

      2895  2.663330E-01 -2.261830E-01  2.297903E+01

 displacements (vx,vy,vz) for set SENSOR and time  0.3750000E-01

      2895  2.959339E-01 -2.748917E-01  2.134505E+01

 displacements (vx,vy,vz) for set SENSOR and time  0.3765625E-01

      2895  3.267475E-01 -3.148973E-01  1.966415E+01

 displacements (vx,vy,vz) for set SENSOR and time  0.3781250E-01

      2895  3.589196E-01 -3.413768E-01  1.796738E+01

 displacements (vx,vy,vz) for set SENSOR and time  0.3796875E-01

      2895  3.929091E-01 -3.512762E-01  1.628791E+01

 displacements (vx,vy,vz) for set SENSOR and time  0.3812500E-01

      2895  4.292790E-01 -3.435267E-01  1.466688E+01

 displacements (vx,vy,vz) for set SENSOR and time  0.3828125E-01

      2895  4.684737E-01 -3.190209E-01  1.315570E+01

 displacements (vx,vy,vz) for set SENSOR and time  0.3843750E-01

      2895  5.106228E-01 -2.803641E-01  1.181374E+01

 displacements (vx,vy,vz) for set SENSOR and time  0.3859375E-01

      2895  5.554057E-01 -2.314417E-01  1.070171E+01

 displacements (vx,vy,vz) for set SENSOR and time  0.3875000E-01

      2895  6.019967E-01 -1.768642E-01  9.872084E+00

 displacements (vx,vy,vz) for set SENSOR and time  0.3890625E-01

      2895  6.490933E-01 -1.213701E-01  9.358797E+00

 displacements (vx,vy,vz) for set SENSOR and time  0.3906250E-01

      2895  6.950166E-01 -6.926900E-02  9.168648E+00