
 displacements (vx,vy,vz) for set SENSOR and time  0.1562500E-03

      2895  2.956218E-02  2.189068E-02 -8.129418E-02

 displacements (vx,vy,vz) for set SENSOR and time  0.3125000E-03

      2895  1.681815E-01  1.278322E-01 -2.835197E-01

 displacements (vx,vy,vz) for set SENSOR and time  0.4687500E-03

      2895  2.957322E-01  2.388497E-01  3.130003E-01

 displacements (vx,vy,vz) for set SENSOR and time  0.6250000E-03

      2895  3.593162E-01  3.170778E-01  2.172742E+00

 displacements (vx,vy,vz) for set SENSOR and time  0.7812500E-03

      2895  3.593233E-01  3.481849E-01  5.002586E+00

 displacements (vx,vy,vz) for set SENSOR and time  0.9375000E-03

      2895  3.172778E-01  3.232547E-01  7.983345E+00

 displacements (vx,vy,vz) for set SENSOR and time  0.1093750E-02

      2895  2.647619E-01  2.432542E-01  1.018072E+01

 displacements (vx,vy,vz) for set SENSOR and time  0.1250000E-02

      2895  2.289500E-01  1.214624E-01  1.100609E+01

 displacements (vx,vy,vz) for set SENSOR and time  0.1406250E-02

      2895  2.213172E-01 -1.820612E-02  1.049301E+01

 displacements (vx,vy,vz) for set SENSOR and time  0.1562500E-02

      2895  2.343904E-01 -1.471190E-01  9.253439E+00

 displacements (vx,vy,vz) for set SENSOR and time  0.1718750E-02

      2895  2.475622E-01 -2.400151E-01  8.143660E+00

 displacements (vx,vy,vz) for set SENSOR and time  0.1875000E-02

      2895  2.388059E-01 -2.819795E-01  7.816357E+00

 displacements (vx,vy,vz) for set SENSOR and time  0.2031250E-02

      2895  1.965474E-01 -2.714968E-01  8.390034E+00

 displacements (vx,vy,vz) for set SENSOR and time  0.2187500E-02

      2895  1.261090E-01 -2.186980E-01  9.402399E+00

 displacements (vx,vy,vz) for set SENSOR and time  0.2343750E-02

      2895  4.789070E-02 -1.401971E-01  1.006676E+01

 displacements (vx,vy,vz) for set SENSOR and time  0.2500000E-02

      2895 -1.157426E-02 -5.330981E-02  9.695851E+00

 displacements (vx,vy,vz) for set SENSOR and time  0.2656250E-02

      2895 -3.126195E-02  2.777115E-02  8.074713E+00

 displacements (vx,vy,vz) for set SENSOR and time  0.2812500E-02

      2895 -4.495422E-03  9.284428E-02  5.593440E+00

 displacements (vx,vy,vz) for set SENSOR and time  0.2968750E-02

      2895  5.895165E-02  1.345449E-01  3.075050E+00

 displacements (vx,vy,vz) for set SENSOR and time  0.3125000E-02

      2895  1.380390E-01  1.471989E-01  1.388048E+00

 displacements (vx,vy,vz) for set SENSOR and time  0.3281250E-02

      2895  2.100061E-01  1.273498E-01  1.039381E+00

 displacements (vx,vy,vz) for set SENSOR and time  0.3437500E-02

      2895  2.594669E-01  7.608001E-02  1.948880E+00

 displacements (vx,vy,vz) for set SENSOR and time  0.3593750E-02

      2895  2.828084E-01  1.537032E-03  3.510944E+00

 displacements (vx,vy,vz) for set SENSOR and time  0.3750000E-02

      2895  2.862886E-01 -8.065105E-02  4.903636E+00

 displacements (vx,vy,vz) for set SENSOR and time  0.3906250E-02

      2895  2.795362E-01 -1.505812E-01  5.484069E+00

 displacements (vx,vy,vz) for set SENSOR and time  0.4062500E-02

      2895  2.684155E-01 -1.904401E-01  5.072054E+00

 displacements (vx,vy,vz) for set SENSOR and time  0.4218750E-02

      2895  2.513030E-01 -1.915409E-01  3.987478E+00

 displacements (vx,vy,vz) for set SENSOR and time  0.4375000E-02

      2895  2.207546E-01 -1.586729E-01  2.835631E+00

 displacements (vx,vy,vz) for set SENSOR and time  0.4531250E-02

      2895  1.694504E-01 -1.092987E-01  2.161912E+00

 displacements (vx,vy,vz) for set SENSOR and time  0.4687500E-02

      2895  9.686630E-02 -6.742075E-02  2.158957E+00

 displacements (vx,vy,vz) for set SENSOR and time  0.4843750E-02

      2895  1.263569E-02 -5.447604E-02  2.576166E+00

 displacements (vx,vy,vz) for set SENSOR and time  0.5000000E-02

      2895 -6.569357E-02 -8.107852E-02  2.873385E+00

 displacements (vx,vy,vz) for set SENSOR and time  0.5156250E-02

      2895 -1.197625E-01 -1.430689E-01  2.533963E+00

 displacements (vx,vy,vz) for set SENSOR and time  0.5312500E-02

      2895 -1.388901E-01 -2.233434E-01  1.371903E+00

 displacements (vx,vy,vz) for set SENSOR and time  0.5468750E-02

      2895 -1.255358E-01 -2.983552E-01 -3.272263E-01

 displacements (vx,vy,vz) for set SENSOR and time  0.5625000E-02

      2895 -9.470787E-02 -3.463008E-01 -1.906152E+00

 displacements (vx,vy,vz) for set SENSOR and time  0.5781250E-02

      2895 -6.731799E-02 -3.536696E-01 -2.629471E+00

 displacements (vx,vy,vz) for set SENSOR and time  0.5937500E-02

      2895 -6.058374E-02 -3.180400E-01 -2.027989E+00

 displacements (vx,vy,vz) for set SENSOR and time  0.6093750E-02

      2895 -8.014089E-02 -2.469688E-01 -1.276481E-01

 displacements (vx,vy,vz) for set SENSOR and time  0.6250000E-02

      2895 -1.177140E-01 -1.544466E-01  2.544355E+00

 displacements (vx,vy,vz) for set SENSOR and time  0.6406250E-02

      2895 -1.554150E-01 -5.692997E-02  5.174467E+00

 displacements (vx,vy,vz) for set SENSOR and time  0.6562500E-02

      2895 -1.744287E-01  2.966131E-02  6.992581E+00

 displacements (vx,vy,vz) for set SENSOR and time  0.6718750E-02

      2895 -1.637108E-01  9.175910E-02  7.561898E+00

 displacements (vx,vy,vz) for set SENSOR and time  0.6875000E-02

      2895 -1.244618E-01  1.194464E-01  6.902090E+00

 displacements (vx,vy,vz) for set SENSOR and time  0.7031250E-02

      2895 -6.844438E-02  1.079747E-01  5.406271E+00

 displacements (vx,vy,vz) for set SENSOR and time  0.7187500E-02

      2895 -1.144673E-02  5.952687E-02  3.612862E+00

 displacements (vx,vy,vz) for set SENSOR and time  0.7343750E-02

      2895  3.435440E-02 -1.564633E-02  1.957059E+00

 displacements (vx,vy,vz) for set SENSOR and time  0.7500000E-02

      2895  6.499872E-02 -9.996182E-02  6.241249E-01

 displacements (vx,vy,vz) for set SENSOR and time  0.7656250E-02

      2895  8.404240E-02 -1.718381E-01 -4.366229E-01

 displacements (vx,vy,vz) for set SENSOR and time  0.7812500E-02

      2895  9.735076E-02 -2.111416E-01 -1.366853E+00

 displacements (vx,vy,vz) for set SENSOR and time  0.7968750E-02

      2895  1.067768E-01 -2.050335E-01 -2.220259E+00

 displacements (vx,vy,vz) for set SENSOR and time  0.8125000E-02

      2895  1.068070E-01 -1.519958E-01 -2.858973E+00

 displacements (vx,vy,vz) for set SENSOR and time  0.8281250E-02

      2895  8.662619E-02 -6.238687E-02 -2.988202E+00

 displacements (vx,vy,vz) for set SENSOR and time  0.8437500E-02

      2895  3.694909E-02  4.472715E-02 -2.312981E+00

 displacements (vx,vy,vz) for set SENSOR and time  0.8593750E-02

      2895 -4.194220E-02  1.471898E-01 -7.317540E-01

 displacements (vx,vy,vz) for set SENSOR and time  0.8750000E-02

      2895 -1.356185E-01  2.256643E-01  1.541632E+00

 displacements (vx,vy,vz) for set SENSOR and time  0.8906250E-02

      2895 -2.176513E-01  2.678327E-01  4.001582E+00

 displacements (vx,vy,vz) for set SENSOR and time  0.9062500E-02

      2895 -2.584777E-01  2.699006E-01  6.020294E+00

 displacements (vx,vy,vz) for set SENSOR and time  0.9218750E-02

      2895 -2.374413E-01  2.356897E-01  7.088458E+00

 displacements (vx,vy,vz) for set SENSOR and time  0.9375000E-02

      2895 -1.525109E-01  1.744300E-01  7.014435E+00

 displacements (vx,vy,vz) for set SENSOR and time  0.9531250E-02

      2895 -2.286680E-02  9.841700E-02  5.987597E+00

 displacements (vx,vy,vz) for set SENSOR and time  0.9687500E-02

      2895  1.173499E-01  2.110681E-02  4.476546E+00

 displacements (vx,vy,vz) for set SENSOR and time  0.9843750E-02

      2895  2.317675E-01 -4.448628E-02  3.012183E+00

 displacements (vx,vy,vz) for set SENSOR and time  0.1000000E-01

      2895  2.955739E-01 -8.753524E-02  1.959468E+00

 displacements (vx,vy,vz) for set SENSOR and time  0.1015625E-01

      2895  3.043695E-01 -1.014450E-01  1.384341E+00

 displacements (vx,vy,vz) for set SENSOR and time  0.1031250E-01

      2895  2.742967E-01 -8.571076E-02  1.073077E+00

 displacements (vx,vy,vz) for set SENSOR and time  0.1046875E-01

      2895  2.335971E-01 -4.662960E-02  6.857748E-01

 displacements (vx,vy,vz) for set SENSOR and time  0.1062500E-01

      2895  2.095613E-01  3.963099E-03 -3.878624E-02

 displacements (vx,vy,vz) for set SENSOR and time  0.1078125E-01

      2895  2.167492E-01  5.197362E-02 -1.131603E+00

 displacements (vx,vy,vz) for set SENSOR and time  0.1093750E-01

      2895  2.515447E-01  8.533910E-02 -2.369665E+00

 displacements (vx,vy,vz) for set SENSOR and time  0.1109375E-01

      2895  2.950445E-01  9.763740E-02 -3.388298E+00

 displacements (vx,vy,vz) for set SENSOR and time  0.1125000E-01

      2895  3.224773E-01  8.948039E-02 -3.869606E+00

 displacements (vx,vy,vz) for set SENSOR and time  0.1140625E-01

      2895  3.145850E-01  6.714261E-02 -3.710101E+00

 displacements (vx,vy,vz) for set SENSOR and time  0.1156250E-01

      2895  2.658747E-01  3.920894E-02 -3.082796E+00

 displacements (vx,vy,vz) for set SENSOR and time  0.1171875E-01

      2895  1.864476E-01  1.297213E-02 -2.363029E+00

 displacements (vx,vy,vz) for set SENSOR and time  0.1187500E-01

      2895  9.723536E-02 -7.670103E-03 -1.955519E+00

 displacements (vx,vy,vz) for set SENSOR and time  0.1203125E-01

      2895  2.137255E-02 -2.200305E-02 -2.108521E+00

 displacements (vx,vy,vz) for set SENSOR and time  0.1218750E-01

      2895 -2.419394E-02 -3.052042E-02 -2.805832E+00

 displacements (vx,vy,vz) for set SENSOR and time  0.1234375E-01

      2895 -3.339963E-02 -3.275422E-02 -3.787376E+00

 displacements (vx,vy,vz) for set SENSOR and time  0.1250000E-01

      2895 -1.073672E-02 -2.654054E-02 -4.684682E+00

 displacements (vx,vy,vz) for set SENSOR and time  0.1265625E-01

      2895  3.295879E-02 -9.409337E-03 -5.201174E+00

 displacements (vx,vy,vz) for set SENSOR and time  0.1281250E-01

      2895  8.590425E-02  1.863073E-02 -5.246528E+00

 displacements (vx,vy,vz) for set SENSOR and time  0.1296875E-01

      2895  1.392152E-01  5.270065E-02 -4.959100E+00

 displacements (vx,vy,vz) for set SENSOR and time  0.1312500E-01

      2895  1.877896E-01  8.288456E-02 -4.607616E+00

 displacements (vx,vy,vz) for set SENSOR and time  0.1328125E-01

      2895  2.286706E-01  9.705021E-02 -4.424175E+00

 displacements (vx,vy,vz) for set SENSOR and time  0.1343750E-01

      2895  2.586787E-01  8.577267E-02 -4.455017E+00

 displacements (vx,vy,vz) for set SENSOR and time  0.1359375E-01

      2895  2.732791E-01  4.714923E-02 -4.506667E+00

 displacements (vx,vy,vz) for set SENSOR and time  0.1375000E-01

      2895  2.676693E-01 -1.095800E-02 -4.217779E+00

 displacements (vx,vy,vz) for set SENSOR and time  0.1390625E-01

      2895  2.395424E-01 -7.268515E-02 -3.224829E+00

 displacements (vx,vy,vz) for set SENSOR and time  0.1406250E-01

      2895  1.918059E-01 -1.195344E-01 -1.343253E+00

 displacements (vx,vy,vz) for set SENSOR and time  0.1421875E-01

      2895  1.333665E-01 -1.372180E-01  1.322630E+00

 displacements (vx,vy,vz) for set SENSOR and time  0.1437500E-01

      2895  7.703345E-02 -1.210989E-01  4.394020E+00

 displacements (vx,vy,vz) for set SENSOR and time  0.1453125E-01

      2895  3.513811E-02 -7.794538E-02  7.350730E+00

 displacements (vx,vy,vz) for set SENSOR and time  0.1468750E-01

      2895  1.479318E-02 -2.335700E-02  9.722098E+00

 displacements (vx,vy,vz) for set SENSOR and time  0.1484375E-01

      2895  1.509004E-02  2.391329E-02  1.124944E+01

 displacements (vx,vy,vz) for set SENSOR and time  0.1500000E-01

      2895  2.773438E-02  4.830700E-02  1.194976E+01

 displacements (vx,vy,vz) for set SENSOR and time  0.1515625E-01

      2895  4.101145E-02  4.200557E-02  1.205893E+01

 displacements (vx,vy,vz) for set SENSOR and time  0.1531250E-01

      2895  4.534700E-02  6.243952E-03  1.188959E+01

 displacements (vx,vy,vz) for set SENSOR and time  0.1546875E-01

      2895  3.789845E-02 -5.051729E-02  1.167683E+01

 displacements (vx,vy,vz) for set SENSOR and time  0.1562500E-01

      2895  2.400227E-02 -1.162356E-01  1.148566E+01

 displacements (vx,vy,vz) for set SENSOR and time  0.1578125E-01

      2895  1.474746E-02 -1.789972E-01  1.121990E+01

 displacements (vx,vy,vz) for set SENSOR and time  0.1593750E-01

      2895  2.175777E-02 -2.294885E-01  1.071938E+01

 displacements (vx,vy,vz) for set SENSOR and time  0.1609375E-01

      2895  5.157844E-02 -2.618480E-01  9.888928E+00

 displacements (vx,vy,vz) for set SENSOR and time  0.1625000E-01

      2895  1.022506E-01 -2.733632E-01  8.788442E+00

 displacements (vx,vy,vz) for set SENSOR and time  0.1640625E-01

      2895  1.636310E-01 -2.638342E-01  7.635635E+00

 displacements (vx,vy,vz) for set SENSOR and time  0.1656250E-01

      2895  2.212723E-01 -2.352122E-01  6.718500E+00

 displacements (vx,vy,vz) for set SENSOR and time  0.1671875E-01

      2895  2.620504E-01 -1.915995E-01  6.261237E+00

 displacements (vx,vy,vz) for set SENSOR and time  0.1687500E-01

      2895  2.789818E-01 -1.392499E-01  6.311121E+00

 displacements (vx,vy,vz) for set SENSOR and time  0.1703125E-01

      2895  2.731413E-01 -8.610638E-02  6.703680E+00

 displacements (vx,vy,vz) for set SENSOR and time  0.1718750E-01

      2895  2.520288E-01 -4.067429E-02  7.125056E+00

 displacements (vx,vy,vz) for set SENSOR and time  0.1734375E-01

      2895  2.254176E-01 -1.043989E-02  7.243011E+00

 displacements (vx,vy,vz) for set SENSOR and time  0.1750000E-01

      2895  2.008353E-01 -3.315923E-04  6.845288E+00

 displacements (vx,vy,vz) for set SENSOR and time  0.1765625E-01

      2895  1.808633E-01 -1.171613E-02  5.921613E+00

 displacements (vx,vy,vz) for set SENSOR and time  0.1781250E-01

      2895  1.633986E-01 -4.217208E-02  4.654069E+00

 displacements (vx,vy,vz) for set SENSOR and time  0.1796875E-01

      2895  1.444594E-01 -8.597432E-02  3.325133E+00

 displacements (vx,vy,vz) for set SENSOR and time  0.1812500E-01

      2895  1.218298E-01 -1.350529E-01  2.191123E+00

 displacements (vx,vy,vz) for set SENSOR and time  0.1828125E-01

      2895  9.746084E-02 -1.802223E-01  1.382507E+00

 displacements (vx,vy,vz) for set SENSOR and time  0.1843750E-01

      2895  7.726964E-02 -2.126124E-01  8.756647E-01

 displacements (vx,vy,vz) for set SENSOR and time  0.1859375E-01

      2895  6.839778E-02 -2.252903E-01  5.427757E-01

 displacements (vx,vy,vz) for set SENSOR and time  0.1875000E-01

      2895  7.538384E-02 -2.149336E-01  2.472255E-01

 displacements (vx,vy,vz) for set SENSOR and time  0.1890625E-01

      2895  9.732998E-02 -1.831471E-01 -6.896443E-02

 displacements (vx,vy,vz) for set SENSOR and time  0.1906250E-01

      2895  1.276738E-01 -1.368189E-01 -3.517281E-01

 displacements (vx,vy,vz) for set SENSOR and time  0.1921875E-01

      2895  1.568398E-01 -8.700050E-02 -4.706112E-01

 displacements (vx,vy,vz) for set SENSOR and time  0.1937500E-01

      2895  1.765237E-01 -4.625592E-02 -3.006740E-01

 displacements (vx,vy,vz) for set SENSOR and time  0.1953125E-01

      2895  1.834500E-01 -2.509811E-02  1.969976E-01

 displacements (vx,vy,vz) for set SENSOR and time  0.1968750E-01

      2895  1.806316E-01 -2.868783E-02  9.426912E-01

 displacements (vx,vy,vz) for set SENSOR and time  0.1984375E-01

      2895  1.753842E-01 -5.507569E-02  1.773573E+00

 displacements (vx,vy,vz) for set SENSOR and time  0.2000000E-01

      2895  1.750095E-01 -9.578687E-02  2.529871E+00

 displacements (vx,vy,vz) for set SENSOR and time  0.2015625E-01

      2895  1.823123E-01 -1.386440E-01  3.145264E+00

 displacements (vx,vy,vz) for set SENSOR and time  0.2031250E-01

      2895  1.933063E-01 -1.718012E-01  3.690220E+00

 displacements (vx,vy,vz) for set SENSOR and time  0.2046875E-01

      2895  1.984537E-01 -1.874630E-01  4.339654E+00

 displacements (vx,vy,vz) for set SENSOR and time  0.2062500E-01

      2895  1.870534E-01 -1.839323E-01  5.275420E+00

 displacements (vx,vy,vz) for set SENSOR and time  0.2078125E-01

      2895  1.527838E-01 -1.653853E-01  6.569879E+00

 displacements (vx,vy,vz) for set SENSOR and time  0.2093750E-01

      2895  9.773256E-02 -1.397398E-01  8.110497E+00

 displacements (vx,vy,vz) for set SENSOR and time  0.2109375E-01

      2895  3.285909E-02 -1.156967E-01  9.609138E+00

 displacements (vx,vy,vz) for set SENSOR and time  0.2125000E-01

      2895 -2.553380E-02 -1.001865E-01  1.070043E+01

 displacements (vx,vy,vz) for set SENSOR and time  0.2140625E-01

      2895 -6.187733E-02 -9.702994E-02  1.109004E+01

 displacements (vx,vy,vz) for set SENSOR and time  0.2156250E-01

      2895 -6.731670E-02 -1.069091E-01  1.068734E+01

 displacements (vx,vy,vz) for set SENSOR and time  0.2171875E-01

      2895 -4.298069E-02 -1.281456E-01  9.661105E+00

 displacements (vx,vy,vz) for set SENSOR and time  0.2187500E-01

      2895  8.253576E-04 -1.575883E-01  8.390324E+00

 displacements (vx,vy,vz) for set SENSOR and time  0.2203125E-01

      2895  4.902002E-02 -1.911555E-01  7.329356E+00

 displacements (vx,vy,vz) for set SENSOR and time  0.2218750E-01

      2895  8.768903E-02 -2.240454E-01  6.844980E+00

 displacements (vx,vy,vz) for set SENSOR and time  0.2234375E-01

      2895  1.089605E-01 -2.509863E-01  7.094662E+00

 displacements (vx,vy,vz) for set SENSOR and time  0.2250000E-01

      2895  1.128632E-01 -2.669186E-01  7.994765E+00

 displacements (vx,vy,vz) for set SENSOR and time  0.2265625E-01

      2895  1.057258E-01 -2.681879E-01  9.285126E+00

 displacements (vx,vy,vz) for set SENSOR and time  0.2281250E-01

      2895  9.625810E-02 -2.538845E-01  1.065277E+01

 displacements (vx,vy,vz) for set SENSOR and time  0.2296875E-01

      2895  9.136604E-02 -2.266951E-01  1.185345E+01

 displacements (vx,vy,vz) for set SENSOR and time  0.2312500E-01

      2895  9.360329E-02 -1.927237E-01  1.277615E+01

 displacements (vx,vy,vz) for set SENSOR and time  0.2328125E-01

      2895  1.011306E-01 -1.601570E-01  1.342805E+01

 displacements (vx,vy,vz) for set SENSOR and time  0.2343750E-01

      2895  1.097227E-01 -1.371725E-01  1.385940E+01

 displacements (vx,vy,vz) for set SENSOR and time  0.2359375E-01

      2895  1.154313E-01 -1.298275E-01  1.407762E+01

 displacements (vx,vy,vz) for set SENSOR and time  0.2375000E-01

      2895  1.164094E-01 -1.406434E-01  1.400297E+01

 displacements (vx,vy,vz) for set SENSOR and time  0.2390625E-01

      2895  1.131006E-01 -1.682503E-01  1.349391E+01

 displacements (vx,vy,vz) for set SENSOR and time  0.2406250E-01

      2895  1.070379E-01 -2.079971E-01  1.243103E+01

 displacements (vx,vy,vz) for set SENSOR and time  0.2421875E-01

      2895  9.928946E-02 -2.531110E-01  1.081502E+01

 displacements (vx,vy,vz) for set SENSOR and time  0.2437500E-01

      2895  8.969574E-02 -2.959643E-01  8.823471E+00

 displacements (vx,vy,vz) for set SENSOR and time  0.2453125E-01

      2895  7.744818E-02 -3.292121E-01  6.789610E+00

 displacements (vx,vy,vz) for set SENSOR and time  0.2468750E-01

      2895  6.263529E-02 -3.468211E-01  5.103655E+00

 displacements (vx,vy,vz) for set SENSOR and time  0.2484375E-01

      2895  4.767922E-02 -3.450942E-01  4.076417E+00

 displacements (vx,vy,vz) for set SENSOR and time  0.2500000E-01

      2895  3.753006E-02 -3.236450E-01  3.824972E+00

 displacements (vx,vy,vz) for set SENSOR and time  0.2515625E-01

      2895  3.812932E-02 -2.860009E-01  4.231806E+00

 displacements (vx,vy,vz) for set SENSOR and time  0.2531250E-01

      2895  5.365765E-02 -2.393530E-01  4.995755E+00

 displacements (vx,vy,vz) for set SENSOR and time  0.2546875E-01

      2895  8.388945E-02 -1.931148E-01  5.751371E+00

 displacements (vx,vy,vz) for set SENSOR and time  0.2562500E-01

      2895  1.231221E-01 -1.564201E-01  6.203236E+00

 displacements (vx,vy,vz) for set SENSOR and time  0.2578125E-01

      2895  1.615047E-01 -1.352779E-01  6.217453E+00

 displacements (vx,vy,vz) for set SENSOR and time  0.2593750E-01

      2895  1.884545E-01 -1.304671E-01  5.835353E+00

 displacements (vx,vy,vz) for set SENSOR and time  0.2609375E-01

      2895  1.967817E-01 -1.371479E-01  5.212496E+00

 displacements (vx,vy,vz) for set SENSOR and time  0.2625000E-01

      2895  1.856961E-01 -1.465465E-01  4.520355E+00

 displacements (vx,vy,vz) for set SENSOR and time  0.2640625E-01

      2895  1.612837E-01 -1.491934E-01  3.862163E+00

 displacements (vx,vy,vz) for set SENSOR and time  0.2656250E-01

      2895  1.341512E-01 -1.384750E-01  3.242503E+00

 displacements (vx,vy,vz) for set SENSOR and time  0.2671875E-01

      2895  1.152063E-01 -1.130675E-01  2.599491E+00

 displacements (vx,vy,vz) for set SENSOR and time  0.2687500E-01

      2895  1.113804E-01 -7.727946E-02  1.875341E+00

 displacements (vx,vy,vz) for set SENSOR and time  0.2703125E-01

      2895  1.231091E-01 -3.923409E-02  1.082443E+00

 displacements (vx,vy,vz) for set SENSOR and time  0.2718750E-01

      2895  1.445735E-01 -7.742574E-03  3.267675E-01

 displacements (vx,vy,vz) for set SENSOR and time  0.2734375E-01

      2895  1.664685E-01  1.078145E-02 -2.250226E-01

 displacements (vx,vy,vz) for set SENSOR and time  0.2750000E-01

      2895  1.799859E-01  1.415600E-02 -4.174923E-01

 displacements (vx,vy,vz) for set SENSOR and time  0.2765625E-01

      2895  1.802572E-01  4.477020E-03 -1.792100E-01

 displacements (vx,vy,vz) for set SENSOR and time  0.2781250E-01

      2895  1.678744E-01 -1.331765E-02  4.419758E-01

 displacements (vx,vy,vz) for set SENSOR and time  0.2796875E-01

      2895  1.480566E-01 -3.347468E-02  1.299402E+00

 displacements (vx,vy,vz) for set SENSOR and time  0.2812500E-01

      2895  1.280960E-01 -5.107910E-02  2.212651E+00

 displacements (vx,vy,vz) for set SENSOR and time  0.2828125E-01

      2895  1.143931E-01 -6.278524E-02  3.043013E+00

 displacements (vx,vy,vz) for set SENSOR and time  0.2843750E-01

      2895  1.104026E-01 -6.668925E-02  3.740529E+00

 displacements (vx,vy,vz) for set SENSOR and time  0.2859375E-01

      2895  1.162115E-01 -6.186238E-02  4.339688E+00

 displacements (vx,vy,vz) for set SENSOR and time  0.2875000E-01

      2895  1.296087E-01 -4.812279E-02  4.908670E+00

 displacements (vx,vy,vz) for set SENSOR and time  0.2890625E-01

      2895  1.478065E-01 -2.629919E-02  5.481846E+00

 displacements (vx,vy,vz) for set SENSOR and time  0.2906250E-01

      2895  1.687747E-01  1.231290E-03  6.014065E+00

 displacements (vx,vy,vz) for set SENSOR and time  0.2921875E-01

      2895  1.914953E-01  3.025553E-02  6.383394E+00

 displacements (vx,vy,vz) for set SENSOR and time  0.2937500E-01

      2895  2.151291E-01  5.515881E-02  6.442875E+00

 displacements (vx,vy,vz) for set SENSOR and time  0.2953125E-01

      2895  2.377242E-01  7.016765E-02  6.095323E+00

 displacements (vx,vy,vz) for set SENSOR and time  0.2968750E-01

      2895  2.553804E-01  7.100272E-02  5.352129E+00

 displacements (vx,vy,vz) for set SENSOR and time  0.2984375E-01

      2895  2.625532E-01  5.625039E-02  4.344502E+00

 displacements (vx,vy,vz) for set SENSOR and time  0.3000000E-01

      2895  2.535915E-01  2.784022E-02  3.279494E+00

 displacements (vx,vy,vz) for set SENSOR and time  0.3015625E-01

      2895  2.249308E-01 -9.570247E-03  2.361243E+00

 displacements (vx,vy,vz) for set SENSOR and time  0.3031250E-01

      2895  1.769668E-01 -4.998503E-02  1.715358E+00

 displacements (vx,vy,vz) for set SENSOR and time  0.3046875E-01

      2895  1.146940E-01 -8.758214E-02  1.352404E+00

 displacements (vx,vy,vz) for set SENSOR and time  0.3062500E-01

      2895  4.670379E-02 -1.177278E-01  1.185959E+00

 displacements (vx,vy,vz) for set SENSOR and time  0.3078125E-01

      2895 -1.716391E-02 -1.372319E-01  1.092696E+00

 displacements (vx,vy,vz) for set SENSOR and time  0.3093750E-01

      2895 -6.863059E-02 -1.440550E-01  9.808359E-01

 displacements (vx,vy,vz) for set SENSOR and time  0.3109375E-01

      2895 -1.031769E-01 -1.369742E-01  8.301899E-01

 displacements (vx,vy,vz) for set SENSOR and time  0.3125000E-01

      2895 -1.208257E-01 -1.156721E-01  6.833447E-01

 displacements (vx,vy,vz) for set SENSOR and time  0.3140625E-01

      2895 -1.253197E-01 -8.135012E-02  5.947069E-01

 displacements (vx,vy,vz) for set SENSOR and time  0.3156250E-01

      2895 -1.221668E-01 -3.751169E-02  5.677562E-01

 displacements (vx,vy,vz) for set SENSOR and time  0.3171875E-01

      2895 -1.164490E-01  9.707596E-03  5.184475E-01

 displacements (vx,vy,vz) for set SENSOR and time  0.3187500E-01

      2895 -1.112954E-01  5.219437E-02  2.899827E-01

 displacements (vx,vy,vz) for set SENSOR and time  0.3203125E-01

      2895 -1.075367E-01  8.158672E-02 -2.825521E-01

 displacements (vx,vy,vz) for set SENSOR and time  0.3218750E-01

      2895 -1.044738E-01  9.160675E-02 -1.286291E+00

 displacements (vx,vy,vz) for set SENSOR and time  0.3234375E-01

      2895 -1.012006E-01  8.013278E-02 -2.665509E+00

 displacements (vx,vy,vz) for set SENSOR and time  0.3250000E-01

      2895 -9.773114E-02  5.014238E-02 -4.212057E+00

 displacements (vx,vy,vz) for set SENSOR and time  0.3265625E-01

      2895 -9.536240E-02  9.060525E-03 -5.621005E+00

 displacements (vx,vy,vz) for set SENSOR and time  0.3281250E-01

      2895 -9.615162E-02 -3.332539E-02 -6.590738E+00

 displacements (vx,vy,vz) for set SENSOR and time  0.3296875E-01

      2895 -1.018514E-01 -6.765820E-02 -6.925616E+00

 displacements (vx,vy,vz) for set SENSOR and time  0.3312500E-01

      2895 -1.129074E-01 -8.753653E-02 -6.597865E+00

 displacements (vx,vy,vz) for set SENSOR and time  0.3328125E-01

      2895 -1.280548E-01 -9.095347E-02 -5.744039E+00

 displacements (vx,vy,vz) for set SENSOR and time  0.3343750E-01

      2895 -1.447063E-01 -8.028964E-02 -4.601024E+00

 displacements (vx,vy,vz) for set SENSOR and time  0.3359375E-01

      2895 -1.598914E-01 -6.104504E-02 -3.412769E+00

 displacements (vx,vy,vz) for set SENSOR and time  0.3375000E-01

      2895 -1.712236E-01 -3.988976E-02 -2.349491E+00

 displacements (vx,vy,vz) for set SENSOR and time  0.3390625E-01

      2895 -1.773817E-01 -2.273062E-02 -1.471725E+00

 displacements (vx,vy,vz) for set SENSOR and time  0.3406250E-01

      2895 -1.778860E-01 -1.334234E-02 -7.478429E-01

 displacements (vx,vy,vz) for set SENSOR and time  0.3421875E-01

      2895 -1.723757E-01 -1.281567E-02 -1.078086E-01

 displacements (vx,vy,vz) for set SENSOR and time  0.3437500E-01

      2895 -1.599010E-01 -1.978210E-02  4.993784E-01

 displacements (vx,vy,vz) for set SENSOR and time  0.3453125E-01

      2895 -1.387695E-01 -3.118602E-02  1.075010E+00

 displacements (vx,vy,vz) for set SENSOR and time  0.3468750E-01

      2895 -1.071914E-01 -4.331307E-02  1.579953E+00

 displacements (vx,vy,vz) for set SENSOR and time  0.3484375E-01

      2895 -6.450068E-02 -5.280975E-02  1.974252E+00

 displacements (vx,vy,vz) for set SENSOR and time  0.3500000E-01

      2895 -1.234266E-02 -5.748869E-02  2.261020E+00

 displacements (vx,vy,vz) for set SENSOR and time  0.3515625E-01

      2895  4.487383E-02 -5.677679E-02  2.506838E+00

 displacements (vx,vy,vz) for set SENSOR and time  0.3531250E-01

      2895  1.006779E-01 -5.173265E-02  2.824122E+00

 displacements (vx,vy,vz) for set SENSOR and time  0.3546875E-01

      2895  1.482695E-01 -4.464822E-02  3.321885E+00

 displacements (vx,vy,vz) for set SENSOR and time  0.3562500E-01

      2895  1.826274E-01 -3.835441E-02  4.048889E+00

 displacements (vx,vy,vz) for set SENSOR and time  0.3578125E-01

      2895  2.020851E-01 -3.543663E-02  4.958434E+00

 displacements (vx,vy,vz) for set SENSOR and time  0.3593750E-01

      2895  2.086456E-01 -3.758900E-02  5.914212E+00

 displacements (vx,vy,vz) for set SENSOR and time  0.3609375E-01

      2895  2.068534E-01 -4.527076E-02  6.736995E+00

 displacements (vx,vy,vz) for set SENSOR and time  0.3625000E-01

      2895  2.017052E-01 -5.769900E-02  7.272242E+00

 displacements (vx,vy,vz) for set SENSOR and time  0.3640625E-01

      2895  1.965348E-01 -7.308372E-02  7.448723E+00

 displacements (vx,vy,vz) for set SENSOR and time  0.3656250E-01

      2895  1.918318E-01 -8.895494E-02  7.302606E+00

 displacements (vx,vy,vz) for set SENSOR and time  0.3671875E-01

      2895  1.855145E-01 -1.024771E-01  6.957727E+00

 displacements (vx,vy,vz) for set SENSOR and time  0.3687500E-01

      2895  1.744880E-01 -1.107574E-01  6.572652E+00

 displacements (vx,vy,vz) for set SENSOR and time  0.3703125E-01

      2895  1.567063E-01 -1.112448E-01  6.279211E+00

 displacements (vx,vy,vz) for set SENSOR and time  0.3718750E-01

      2895  1.327226E-01 -1.023078E-01  6.138983E+00

 displacements (vx,vy,vz) for set SENSOR and time  0.3734375E-01

      2895  1.059632E-01 -8.394419E-02  6.133786E+00

 displacements (vx,vy,vz) for set SENSOR and time  0.3750000E-01

      2895  8.158204E-02 -5.838592E-02  6.189339E+00

 displacements (vx,vy,vz) for set SENSOR and time  0.3765625E-01

      2895  6.443147E-02 -3.023992E-02  6.216472E+00

 displacements (vx,vy,vz) for set SENSOR and time  0.3781250E-01

      2895  5.709889E-02 -5.860232E-03  6.148504E+00

 displacements (vx,vy,vz) for set SENSOR and time  0.3796875E-01

      2895  5.890557E-02  8.092857E-03  5.958568E+00

 displacements (vx,vy,vz) for set SENSOR and time  0.3812500E-01

      2895  6.628948E-02  6.578434E-03  5.653226E+00

 displacements (vx,vy,vz) for set SENSOR and time  0.3828125E-01

      2895  7.433309E-02 -1.204964E-02  5.251542E+00

 displacements (vx,vy,vz) for set SENSOR and time  0.3843750E-01

      2895  7.868160E-02 -4.512097E-02  4.765297E+00

 displacements (vx,vy,vz) for set SENSOR and time  0.3859375E-01

      2895  7.696859E-02 -8.603990E-02  4.193285E+00

 displacements (vx,vy,vz) for set SENSOR and time  0.3875000E-01

      2895  6.916827E-02 -1.259706E-01  3.532770E+00

 displacements (vx,vy,vz) for set SENSOR and time  0.3890625E-01

      2895  5.685582E-02 -1.562851E-01  2.799971E+00

 displacements (vx,vy,vz) for set SENSOR and time  0.3906250E-01

      2895  4.188577E-02 -1.709308E-01  2.045179E+00