
 displacements (vx,vy,vz) for set SENSOR and time  0.1562500E-03

      2895  2.975272E-02  2.201055E-02 -1.320847E-01

 displacements (vx,vy,vz) for set SENSOR and time  0.3125000E-03

      2895  1.741438E-01  1.304018E-01 -6.455557E-01

 displacements (vx,vy,vz) for set SENSOR and time  0.4687500E-03

      2895  3.282536E-01  2.530471E-01 -6.192663E-01

 displacements (vx,vy,vz) for set SENSOR and time  0.6250000E-03

      2895  4.469965E-01  3.607089E-01  5.571042E-01

 displacements (vx,vy,vz) for set SENSOR and time  0.7812500E-03

      2895  5.213684E-01  4.461791E-01  3.075572E+00

 displacements (vx,vy,vz) for set SENSOR and time  0.9375000E-03

      2895  5.498795E-01  5.026251E-01  6.799010E+00

 displacements (vx,vy,vz) for set SENSOR and time  0.1093750E-02

      2895  5.383675E-01  5.243620E-01  1.129324E+01

 displacements (vx,vy,vz) for set SENSOR and time  0.1250000E-02

      2895  4.984068E-01  5.078384E-01  1.592814E+01

 displacements (vx,vy,vz) for set SENSOR and time  0.1406250E-02

      2895  4.446741E-01  4.525954E-01  2.002327E+01

 displacements (vx,vy,vz) for set SENSOR and time  0.1562500E-02

      2895  3.918349E-01  3.619236E-01  2.300327E+01

 displacements (vx,vy,vz) for set SENSOR and time  0.1718750E-02

      2895  3.516008E-01  2.429851E-01  2.452661E+01

 displacements (vx,vy,vz) for set SENSOR and time  0.1875000E-02

      2895  3.305567E-01  1.062780E-01  2.455789E+01

 displacements (vx,vy,vz) for set SENSOR and time  0.2031250E-02

      2895  3.291798E-01 -3.552460E-02  2.336770E+01

 displacements (vx,vy,vz) for set SENSOR and time  0.2187500E-02

      2895  3.422148E-01 -1.691790E-01  2.146101E+01

 displacements (vx,vy,vz) for set SENSOR and time  0.2343750E-02

      2895  3.602786E-01 -2.826221E-01  1.945221E+01

 displacements (vx,vy,vz) for set SENSOR and time  0.2500000E-02

      2895  3.723120E-01 -3.665313E-01  1.791682E+01

 displacements (vx,vy,vz) for set SENSOR and time  0.2656250E-02

      2895  3.683264E-01 -4.153981E-01  1.725524E+01

 displacements (vx,vy,vz) for set SENSOR and time  0.2812500E-02

      2895  3.418434E-01 -4.279266E-01  1.760041E+01

 displacements (vx,vy,vz) for set SENSOR and time  0.2968750E-02

      2895  2.915062E-01 -4.067311E-01  1.879071E+01

 displacements (vx,vy,vz) for set SENSOR and time  0.3125000E-02

      2895  2.215326E-01 -3.574545E-01  2.041369E+01

 displacements (vx,vy,vz) for set SENSOR and time  0.3281250E-02

      2895  1.409363E-01 -2.875555E-01  2.190958E+01

 displacements (vx,vy,vz) for set SENSOR and time  0.3437500E-02

      2895  6.171318E-02 -2.050578E-01  2.270950E+01

 displacements (vx,vy,vz) for set SENSOR and time  0.3593750E-02

      2895 -3.595087E-03 -1.175301E-01  2.237579E+01

 displacements (vx,vy,vz) for set SENSOR and time  0.3750000E-02

      2895 -4.441914E-02 -3.147073E-02  2.071128E+01

 displacements (vx,vy,vz) for set SENSOR and time  0.3906250E-02

      2895 -5.422106E-02  4.786479E-02  1.781231E+01

 displacements (vx,vy,vz) for set SENSOR and time  0.4062500E-02

      2895 -3.166786E-02  1.162842E-01  1.405352E+01

 displacements (vx,vy,vz) for set SENSOR and time  0.4218750E-02

      2895  1.929991E-02  1.703173E-01  1.000849E+01

 displacements (vx,vy,vz) for set SENSOR and time  0.4375000E-02

      2895  9.047370E-02  2.069316E-01  6.325090E+00

 displacements (vx,vy,vz) for set SENSOR and time  0.4531250E-02

      2895  1.711904E-01  2.234862E-01  3.584606E+00

 displacements (vx,vy,vz) for set SENSOR and time  0.4687500E-02

      2895  2.505188E-01  2.180035E-01  2.177011E+00

 displacements (vx,vy,vz) for set SENSOR and time  0.4843750E-02

      2895  3.193184E-01  1.897134E-01  2.220568E+00

 displacements (vx,vy,vz) for set SENSOR and time  0.5000000E-02

      2895  3.717230E-01  1.397057E-01  3.543157E+00

 displacements (vx,vy,vz) for set SENSOR and time  0.5156250E-02

      2895  4.057525E-01  7.145595E-02  5.728300E+00

 displacements (vx,vy,vz) for set SENSOR and time  0.5312500E-02

      2895  4.229756E-01 -9.014255E-03  8.213895E+00

 displacements (vx,vy,vz) for set SENSOR and time  0.5468750E-02

      2895  4.273727E-01 -9.350684E-02  1.041985E+01

 displacements (vx,vy,vz) for set SENSOR and time  0.5625000E-02

      2895  4.237348E-01 -1.725853E-01  1.187475E+01

 displacements (vx,vy,vz) for set SENSOR and time  0.5781250E-02

      2895  4.160340E-01 -2.369648E-01  1.231264E+01

 displacements (vx,vy,vz) for set SENSOR and time  0.5937500E-02

      2895  4.061915E-01 -2.791015E-01  1.171869E+01

 displacements (vx,vy,vz) for set SENSOR and time  0.6093750E-02

      2895  3.935544E-01 -2.946492E-01  1.031493E+01

 displacements (vx,vy,vz) for set SENSOR and time  0.6250000E-02

      2895  3.752055E-01 -2.834445E-01  8.491340E+00

 displacements (vx,vy,vz) for set SENSOR and time  0.6406250E-02

      2895  3.470080E-01 -2.497680E-01  6.700372E+00

 displacements (vx,vy,vz) for set SENSOR and time  0.6562500E-02

      2895  3.050995E-01 -2.017735E-01  5.340864E+00

 displacements (vx,vy,vz) for set SENSOR and time  0.6718750E-02

      2895  2.474268E-01 -1.501566E-01  4.659405E+00

 displacements (vx,vy,vz) for set SENSOR and time  0.6875000E-02

      2895  1.748976E-01 -1.063068E-01  4.692310E+00

 displacements (vx,vy,vz) for set SENSOR and time  0.7031250E-02

      2895  9.181748E-02 -8.029785E-02  5.261352E+00

 displacements (vx,vy,vz) for set SENSOR and time  0.7187500E-02

      2895  5.453571E-03 -7.911406E-02  6.023452E+00

 displacements (vx,vy,vz) for set SENSOR and time  0.7343750E-02

      2895 -7.521116E-02 -1.054540E-01  6.561686E+00

 displacements (vx,vy,vz) for set SENSOR and time  0.7500000E-02

      2895 -1.412651E-01 -1.573299E-01  6.495412E+00

 displacements (vx,vy,vz) for set SENSOR and time  0.7656250E-02

      2895 -1.857820E-01 -2.285090E-01  5.582993E+00

 displacements (vx,vy,vz) for set SENSOR and time  0.7812500E-02

      2895 -2.054027E-01 -3.096701E-01  3.792590E+00

 displacements (vx,vy,vz) for set SENSOR and time  0.7968750E-02

      2895 -2.011913E-01 -3.900125E-01  1.324121E+00

 displacements (vx,vy,vz) for set SENSOR and time  0.8125000E-02

      2895 -1.785364E-01 -4.589824E-01 -1.423057E+00

 displacements (vx,vy,vz) for set SENSOR and time  0.8281250E-02

      2895 -1.460892E-01 -5.077931E-01 -3.929639E+00

 displacements (vx,vy,vz) for set SENSOR and time  0.8437500E-02

      2895 -1.139588E-01 -5.304909E-01 -5.665181E+00

 displacements (vx,vy,vz) for set SENSOR and time  0.8593750E-02

      2895 -9.156207E-02 -5.244439E-01 -6.201876E+00

 displacements (vx,vy,vz) for set SENSOR and time  0.8750000E-02

      2895 -8.561313E-02 -4.902687E-01 -5.308060E+00

 displacements (vx,vy,vz) for set SENSOR and time  0.8906250E-02

      2895 -9.870639E-02 -4.313211E-01 -3.001083E+00

 displacements (vx,vy,vz) for set SENSOR and time  0.9062500E-02

      2895 -1.288138E-01 -3.529449E-01  4.514809E-01

 displacements (vx,vy,vz) for set SENSOR and time  0.9218750E-02

      2895 -1.698040E-01 -2.616777E-01  4.581710E+00

 displacements (vx,vy,vz) for set SENSOR and time  0.9375000E-02

      2895 -2.128540E-01 -1.645674E-01  8.810544E+00

 displacements (vx,vy,vz) for set SENSOR and time  0.9531250E-02

      2895 -2.484214E-01 -6.867190E-02  1.255633E+01

 displacements (vx,vy,vz) for set SENSOR and time  0.9687500E-02

      2895 -2.683159E-01  1.926983E-02  1.533921E+01

 displacements (vx,vy,vz) for set SENSOR and time  0.9843750E-02

      2895 -2.673992E-01  9.307199E-02  1.685967E+01

 displacements (vx,vy,vz) for set SENSOR and time  0.1000000E-01

      2895 -2.445355E-01  1.473430E-01  1.703621E+01

 displacements (vx,vy,vz) for set SENSOR and time  0.1015625E-01

      2895 -2.026048E-01  1.778127E-01  1.599682E+01

 displacements (vx,vy,vz) for set SENSOR and time  0.1031250E-01

      2895 -1.476148E-01  1.817695E-01  1.402939E+01

 displacements (vx,vy,vz) for set SENSOR and time  0.1046875E-01

      2895 -8.716831E-02  1.585545E-01  1.150503E+01

 displacements (vx,vy,vz) for set SENSOR and time  0.1062500E-01

      2895 -2.868479E-02  1.099988E-01  8.793541E+00

 displacements (vx,vy,vz) for set SENSOR and time  0.1078125E-01

      2895  2.217131E-02  4.065256E-02  6.190739E+00

 displacements (vx,vy,vz) for set SENSOR and time  0.1093750E-01

      2895  6.247327E-02 -4.232940E-02  3.873413E+00

 displacements (vx,vy,vz) for set SENSOR and time  0.1109375E-01

      2895  9.220121E-02 -1.297250E-01  1.890049E+00

 displacements (vx,vy,vz) for set SENSOR and time  0.1125000E-01

      2895  1.135902E-01 -2.111942E-01  1.863714E-01

 displacements (vx,vy,vz) for set SENSOR and time  0.1140625E-01

      2895  1.298655E-01 -2.765280E-01 -1.343701E+00

 displacements (vx,vy,vz) for set SENSOR and time  0.1156250E-01

      2895  1.437346E-01 -3.170038E-01 -2.797000E+00

 displacements (vx,vy,vz) for set SENSOR and time  0.1171875E-01

      2895  1.560751E-01 -3.266101E-01 -4.207153E+00

 displacements (vx,vy,vz) for set SENSOR and time  0.1187500E-01

      2895  1.652076E-01 -3.029141E-01 -5.512573E+00

 displacements (vx,vy,vz) for set SENSOR and time  0.1203125E-01

      2895  1.669980E-01 -2.474085E-01 -6.555282E+00

 displacements (vx,vy,vz) for set SENSOR and time  0.1218750E-01

      2895  1.558158E-01 -1.652743E-01 -7.111384E+00

 displacements (vx,vy,vz) for set SENSOR and time  0.1234375E-01

      2895  1.261458E-01 -6.460902E-02 -6.945844E+00

 displacements (vx,vy,vz) for set SENSOR and time  0.1250000E-01

      2895  7.446692E-02  4.472690E-02 -5.877935E+00

 displacements (vx,vy,vz) for set SENSOR and time  0.1265625E-01

      2895  9.136370E-04  1.524299E-01 -3.840789E+00

 displacements (vx,vy,vz) for set SENSOR and time  0.1281250E-01

      2895 -8.973822E-02  2.490087E-01 -9.195777E-01

 displacements (vx,vy,vz) for set SENSOR and time  0.1296875E-01

      2895 -1.880846E-01  3.267812E-01  2.642302E+00

 displacements (vx,vy,vz) for set SENSOR and time  0.1312500E-01

      2895 -2.812051E-01  3.804907E-01  6.472210E+00

 displacements (vx,vy,vz) for set SENSOR and time  0.1328125E-01

      2895 -3.547150E-01  4.075155E-01  1.012739E+01

 displacements (vx,vy,vz) for set SENSOR and time  0.1343750E-01

      2895 -3.953716E-01  4.077252E-01  1.317203E+01

 displacements (vx,vy,vz) for set SENSOR and time  0.1359375E-01

      2895 -3.936946E-01  3.830992E-01  1.525584E+01

 displacements (vx,vy,vz) for set SENSOR and time  0.1375000E-01

      2895 -3.460326E-01  3.372394E-01  1.617701E+01

 displacements (vx,vy,vz) for set SENSOR and time  0.1390625E-01

      2895 -2.556035E-01  2.748903E-01  1.591594E+01

 displacements (vx,vy,vz) for set SENSOR and time  0.1406250E-01

      2895 -1.322436E-01  2.015328E-01  1.463243E+01

 displacements (vx,vy,vz) for set SENSOR and time  0.1421875E-01

      2895  9.131690E-03  1.230610E-01  1.262728E+01

 displacements (vx,vy,vz) for set SENSOR and time  0.1437500E-01

      2895  1.510746E-01  4.550350E-02  1.027691E+01

 displacements (vx,vy,vz) for set SENSOR and time  0.1453125E-01

      2895  2.766628E-01 -2.526912E-02  7.955407E+00

 displacements (vx,vy,vz) for set SENSOR and time  0.1468750E-01

      2895  3.724573E-01 -8.390157E-02  5.961240E+00

 displacements (vx,vy,vz) for set SENSOR and time  0.1484375E-01

      2895  4.307688E-01 -1.259885E-01  4.464036E+00

 displacements (vx,vy,vz) for set SENSOR and time  0.1500000E-01

      2895  4.507835E-01 -1.485483E-01  3.482474E+00

 displacements (vx,vy,vz) for set SENSOR and time  0.1515625E-01

      2895  4.383388E-01 -1.504518E-01  2.896878E+00

 displacements (vx,vy,vz) for set SENSOR and time  0.1531250E-01

      2895  4.044202E-01 -1.326934E-01  2.492376E+00

 displacements (vx,vy,vz) for set SENSOR and time  0.1546875E-01

      2895  3.627111E-01 -9.840424E-02  2.021698E+00

 displacements (vx,vy,vz) for set SENSOR and time  0.1562500E-01

      2895  3.267158E-01 -5.254393E-02  1.272535E+00

 displacements (vx,vy,vz) for set SENSOR and time  0.1578125E-01

      2895  3.070486E-01 -1.279333E-03  1.237311E-01

 displacements (vx,vy,vz) for set SENSOR and time  0.1593750E-01

      2895  3.094289E-01  4.886695E-02 -1.422467E+00

 displacements (vx,vy,vz) for set SENSOR and time  0.1609375E-01

      2895  3.337597E-01  9.195212E-02 -3.239107E+00

 displacements (vx,vy,vz) for set SENSOR and time  0.1625000E-01

      2895  3.744294E-01  1.234544E-01 -5.103892E+00

 displacements (vx,vy,vz) for set SENSOR and time  0.1640625E-01

      2895  4.217191E-01  1.408524E-01 -6.751849E+00

 displacements (vx,vy,vz) for set SENSOR and time  0.1656250E-01

      2895  4.639777E-01  1.438279E-01 -7.938658E+00

 displacements (vx,vy,vz) for set SENSOR and time  0.1671875E-01

      2895  4.900867E-01  1.340598E-01 -8.499730E+00

 displacements (vx,vy,vz) for set SENSOR and time  0.1687500E-01

      2895  4.917002E-01  1.146715E-01 -8.391274E+00

 displacements (vx,vy,vz) for set SENSOR and time  0.1703125E-01

      2895  4.648260E-01  8.946953E-02 -7.703873E+00

 displacements (vx,vy,vz) for set SENSOR and time  0.1718750E-01

      2895  4.104698E-01  6.216066E-02 -6.645559E+00

 displacements (vx,vy,vz) for set SENSOR and time  0.1734375E-01

      2895  3.342798E-01  3.572606E-02 -5.498327E+00

 displacements (vx,vy,vz) for set SENSOR and time  0.1750000E-01

      2895  2.453333E-01  1.208752E-02 -4.558133E+00

 displacements (vx,vy,vz) for set SENSOR and time  0.1765625E-01

      2895  1.543751E-01 -7.884736E-03 -4.072019E+00

 displacements (vx,vy,vz) for set SENSOR and time  0.1781250E-01

      2895  7.190082E-02 -2.406677E-02 -4.186578E+00

 displacements (vx,vy,vz) for set SENSOR and time  0.1796875E-01

      2895  6.478956E-03 -3.660287E-02 -4.919166E+00

 displacements (vx,vy,vz) for set SENSOR and time  0.1812500E-01

      2895 -3.638703E-02 -4.542560E-02 -6.158017E+00

 displacements (vx,vy,vz) for set SENSOR and time  0.1828125E-01

      2895 -5.469434E-02 -4.994198E-02 -7.690724E+00

 displacements (vx,vy,vz) for set SENSOR and time  0.1843750E-01

      2895 -4.968122E-02 -4.900344E-02 -9.254136E+00

 displacements (vx,vy,vz) for set SENSOR and time  0.1859375E-01

      2895 -2.502563E-02 -4.119198E-02 -1.059392E+01

 displacements (vx,vy,vz) for set SENSOR and time  0.1875000E-01

      2895  1.424496E-02 -2.535726E-02 -1.151997E+01

 displacements (vx,vy,vz) for set SENSOR and time  0.1890625E-01

      2895  6.284884E-02 -1.256747E-03 -1.194513E+01

 displacements (vx,vy,vz) for set SENSOR and time  0.1906250E-01

      2895  1.161049E-01  2.989466E-02 -1.189832E+01

 displacements (vx,vy,vz) for set SENSOR and time  0.1921875E-01

      2895  1.703931E-01  6.515237E-02 -1.150969E+01

 displacements (vx,vy,vz) for set SENSOR and time  0.1937500E-01

      2895  2.231881E-01  9.997612E-02 -1.097138E+01

 displacements (vx,vy,vz) for set SENSOR and time  0.1953125E-01

      2895  2.727474E-01  1.288022E-01 -1.048339E+01

 displacements (vx,vy,vz) for set SENSOR and time  0.1968750E-01

      2895  3.176236E-01  1.459739E-01 -1.019735E+01

 displacements (vx,vy,vz) for set SENSOR and time  0.1984375E-01

      2895  3.561996E-01  1.468507E-01 -1.017153E+01

 displacements (vx,vy,vz) for set SENSOR and time  0.2000000E-01

      2895  3.864251E-01  1.288586E-01 -1.034775E+01

 displacements (vx,vy,vz) for set SENSOR and time  0.2015625E-01

      2895  4.058620E-01  9.223675E-02 -1.055588E+01

 displacements (vx,vy,vz) for set SENSOR and time  0.2031250E-01

      2895  4.120468E-01  4.029149E-02 -1.054551E+01

 displacements (vx,vy,vz) for set SENSOR and time  0.2046875E-01

      2895  4.030806E-01 -2.093264E-02 -1.003789E+01

 displacements (vx,vy,vz) for set SENSOR and time  0.2062500E-01

      2895  3.782824E-01 -8.353038E-02 -8.787076E+00

 displacements (vx,vy,vz) for set SENSOR and time  0.2078125E-01

      2895  3.387111E-01 -1.390076E-01 -6.636642E+00

 displacements (vx,vy,vz) for set SENSOR and time  0.2093750E-01

      2895  2.873832E-01 -1.797073E-01 -3.559693E+00

 displacements (vx,vy,vz) for set SENSOR and time  0.2109375E-01

      2895  2.290824E-01 -2.001137E-01  3.267440E-01

 displacements (vx,vy,vz) for set SENSOR and time  0.2125000E-01

      2895  1.697524E-01 -1.977859E-01  4.776103E+00

 displacements (vx,vy,vz) for set SENSOR and time  0.2140625E-01

      2895  1.155738E-01 -1.737471E-01  9.452424E+00

 displacements (vx,vy,vz) for set SENSOR and time  0.2156250E-01

      2895  7.190493E-02 -1.322715E-01  1.398770E+01

 displacements (vx,vy,vz) for set SENSOR and time  0.2171875E-01

      2895  4.231560E-02 -8.013039E-02  1.804434E+01

 displacements (vx,vy,vz) for set SENSOR and time  0.2187500E-01

      2895  2.793134E-02 -2.545916E-02  2.136973E+01

 displacements (vx,vy,vz) for set SENSOR and time  0.2203125E-01

      2895  2.724794E-02  2.352652E-02  2.383202E+01

 displacements (vx,vy,vz) for set SENSOR and time  0.2218750E-01

      2895  3.647678E-02  5.972913E-02  2.543036E+01

 displacements (vx,vy,vz) for set SENSOR and time  0.2234375E-01

      2895  5.036582E-02  7.808250E-02  2.627876E+01

 displacements (vx,vy,vz) for set SENSOR and time  0.2250000E-01

      2895  6.333450E-02  7.605536E-02  2.656829E+01

 displacements (vx,vy,vz) for set SENSOR and time  0.2265625E-01

      2895  7.068766E-02  5.371386E-02  2.651697E+01

 displacements (vx,vy,vz) for set SENSOR and time  0.2281250E-01

      2895  6.965067E-02  1.339865E-02  2.631904E+01

 displacements (vx,vy,vz) for set SENSOR and time  0.2296875E-01

      2895  6.000145E-02 -4.086332E-02  2.610486E+01

 displacements (vx,vy,vz) for set SENSOR and time  0.2312500E-01

      2895  4.415847E-02 -1.040639E-01  2.591993E+01

 displacements (vx,vy,vz) for set SENSOR and time  0.2328125E-01

      2895  2.669881E-02 -1.708943E-01  2.572677E+01

 displacements (vx,vy,vz) for set SENSOR and time  0.2343750E-01

      2895  1.340224E-02 -2.362982E-01  2.542803E+01

 displacements (vx,vy,vz) for set SENSOR and time  0.2359375E-01

      2895  1.001967E-02 -2.958453E-01  2.490430E+01

 displacements (vx,vy,vz) for set SENSOR and time  0.2375000E-01

      2895  2.102433E-02 -3.459293E-01  2.405684E+01

 displacements (vx,vy,vz) for set SENSOR and time  0.2390625E-01

      2895  4.860828E-02 -3.838312E-01  2.284460E+01

 displacements (vx,vy,vz) for set SENSOR and time  0.2406250E-01

      2895  9.213525E-02 -4.077085E-01  2.130624E+01

 displacements (vx,vy,vz) for set SENSOR and time  0.2421875E-01

      2895  1.481634E-01 -4.165664E-01  1.956185E+01

 displacements (vx,vy,vz) for set SENSOR and time  0.2437500E-01

      2895  2.110305E-01 -4.102452E-01  1.779364E+01

 displacements (vx,vy,vz) for set SENSOR and time  0.2453125E-01

      2895  2.738744E-01 -3.894297E-01  1.621005E+01

 displacements (vx,vy,vz) for set SENSOR and time  0.2468750E-01

      2895  3.298736E-01 -3.556596E-01  1.500138E+01

 displacements (vx,vy,vz) for set SENSOR and time  0.2484375E-01

      2895  3.734455E-01 -3.113071E-01  1.429741E+01

 displacements (vx,vy,vz) for set SENSOR and time  0.2500000E-01

      2895  4.011594E-01 -2.594867E-01  1.413652E+01

 displacements (vx,vy,vz) for set SENSOR and time  0.2515625E-01

      2895  4.121834E-01 -2.038787E-01  1.445367E+01

 displacements (vx,vy,vz) for set SENSOR and time  0.2531250E-01

      2895  4.081913E-01 -1.484701E-01  1.509014E+01

 displacements (vx,vy,vz) for set SENSOR and time  0.2546875E-01

      2895  3.927760E-01 -9.723977E-02  1.582301E+01

 displacements (vx,vy,vz) for set SENSOR and time  0.2562500E-01

      2895  3.705177E-01 -5.383033E-02  1.640804E+01

 displacements (vx,vy,vz) for set SENSOR and time  0.2578125E-01

      2895  3.459301E-01 -2.125390E-02  1.662680E+01

 displacements (vx,vy,vz) for set SENSOR and time  0.2593750E-01

      2895  3.225252E-01 -1.668201E-03  1.632785E+01

 displacements (vx,vy,vz) for set SENSOR and time  0.2609375E-01

      2895  3.022006E-01  3.757128E-03  1.545343E+01

 displacements (vx,vy,vz) for set SENSOR and time  0.2625000E-01

      2895  2.850735E-01 -5.114866E-03  1.404642E+01

 displacements (vx,vy,vz) for set SENSOR and time  0.2640625E-01

      2895  2.697764E-01 -2.741542E-02  1.223674E+01

 displacements (vx,vy,vz) for set SENSOR and time  0.2656250E-01

      2895  2.541201E-01 -6.134459E-02  1.021087E+01

 displacements (vx,vy,vz) for set SENSOR and time  0.2671875E-01

      2895  2.359456E-01 -1.042738E-01  8.171901E+00

 displacements (vx,vy,vz) for set SENSOR and time  0.2687500E-01

      2895  2.139412E-01 -1.528697E-01  6.299075E+00

 displacements (vx,vy,vz) for set SENSOR and time  0.2703125E-01

      2895  1.882183E-01 -2.032493E-01  4.715804E+00

 displacements (vx,vy,vz) for set SENSOR and time  0.2718750E-01

      2895  1.604952E-01 -2.511861E-01  3.472671E+00

 displacements (vx,vy,vz) for set SENSOR and time  0.2734375E-01

      2895  1.338398E-01 -2.923898E-01  2.548305E+00

 displacements (vx,vy,vz) for set SENSOR and time  0.2750000E-01

      2895  1.120288E-01 -3.228685E-01  1.866766E+00

 displacements (vx,vy,vz) for set SENSOR and time  0.2765625E-01

      2895  9.867727E-02 -3.393551E-01  1.326286E+00

 displacements (vx,vy,vz) for set SENSOR and time  0.2781250E-01

      2895  9.635257E-02 -3.397558E-01  8.317663E-01

 displacements (vx,vy,vz) for set SENSOR and time  0.2796875E-01

      2895  1.058911E-01 -3.235426E-01  3.228433E-01

 displacements (vx,vy,vz) for set SENSOR and time  0.2812500E-01

      2895  1.260940E-01 -2.920078E-01 -2.092852E-01

 displacements (vx,vy,vz) for set SENSOR and time  0.2828125E-01

      2895  1.538874E-01 -2.482964E-01 -7.200888E-01

 displacements (vx,vy,vz) for set SENSOR and time  0.2843750E-01

      2895  1.849220E-01 -1.971680E-01 -1.124965E+00

 displacements (vx,vy,vz) for set SENSOR and time  0.2859375E-01

      2895  2.144806E-01 -1.444832E-01 -1.323737E+00

 displacements (vx,vy,vz) for set SENSOR and time  0.2875000E-01

      2895  2.384845E-01 -9.646707E-02 -1.229805E+00

 displacements (vx,vy,vz) for set SENSOR and time  0.2890625E-01

      2895  2.543610E-01 -5.885559E-02 -7.962153E-01

 displacements (vx,vy,vz) for set SENSOR and time  0.2906250E-01

      2895  2.615631E-01 -3.606485E-02 -3.171751E-02

 displacements (vx,vy,vz) for set SENSOR and time  0.2921875E-01

      2895  2.616090E-01 -3.053137E-02  9.976568E-01

 displacements (vx,vy,vz) for set SENSOR and time  0.2937500E-01

      2895  2.576233E-01 -4.234865E-02  2.182290E+00

 displacements (vx,vy,vz) for set SENSOR and time  0.2953125E-01

      2895  2.534769E-01 -6.927342E-02  3.394893E+00

 displacements (vx,vy,vz) for set SENSOR and time  0.2968750E-01

      2895  2.527243E-01 -1.071063E-01  4.522373E+00

 displacements (vx,vy,vz) for set SENSOR and time  0.2984375E-01

      2895  2.575872E-01 -1.503800E-01  5.495702E+00

 displacements (vx,vy,vz) for set SENSOR and time  0.3000000E-01

      2895  2.682329E-01 -1.932291E-01  6.310009E+00

 displacements (vx,vy,vz) for set SENSOR and time  0.3015625E-01

      2895  2.825294E-01 -2.302827E-01  7.029230E+00

 displacements (vx,vy,vz) for set SENSOR and time  0.3031250E-01

      2895  2.963575E-01 -2.574234E-01  7.773214E+00

 displacements (vx,vy,vz) for set SENSOR and time  0.3046875E-01

      2895  3.044300E-01 -2.722873E-01  8.689345E+00

 displacements (vx,vy,vz) for set SENSOR and time  0.3062500E-01

      2895  3.014503E-01 -2.744373E-01  9.914576E+00

 displacements (vx,vy,vz) for set SENSOR and time  0.3078125E-01

      2895  2.833605E-01 -2.652135E-01  1.153636E+01

 displacements (vx,vy,vz) for set SENSOR and time  0.3093750E-01

      2895  2.484003E-01 -2.473208E-01  1.356166E+01

 displacements (vx,vy,vz) for set SENSOR and time  0.3109375E-01

      2895  1.977355E-01 -2.242656E-01  1.590177E+01

 displacements (vx,vy,vz) for set SENSOR and time  0.3125000E-01

      2895  1.355018E-01 -1.997632E-01  1.837749E+01

 displacements (vx,vy,vz) for set SENSOR and time  0.3140625E-01

      2895  6.823634E-02 -1.772280E-01  2.074479E+01

 displacements (vx,vy,vz) for set SENSOR and time  0.3156250E-01

      2895  3.802211E-03 -1.594223E-01  2.273653E+01

 displacements (vx,vy,vz) for set SENSOR and time  0.3171875E-01

      2895 -4.997971E-02 -1.482894E-01  2.411215E+01

 displacements (vx,vy,vz) for set SENSOR and time  0.3187500E-01

      2895 -8.671390E-02 -1.449496E-01  2.470520E+01

 displacements (vx,vy,vz) for set SENSOR and time  0.3203125E-01

      2895 -1.025473E-01 -1.498034E-01  2.445884E+01

 displacements (vx,vy,vz) for set SENSOR and time  0.3218750E-01

      2895 -9.679768E-02 -1.626724E-01  2.344158E+01

 displacements (vx,vy,vz) for set SENSOR and time  0.3234375E-01

      2895 -7.197645E-02 -1.829162E-01  2.183979E+01

 displacements (vx,vy,vz) for set SENSOR and time  0.3250000E-01

      2895 -3.321566E-02 -2.094914E-01  1.992814E+01

 displacements (vx,vy,vz) for set SENSOR and time  0.3265625E-01

      2895  1.276557E-02 -2.409523E-01  1.802375E+01

 displacements (vx,vy,vz) for set SENSOR and time  0.3281250E-01

      2895  5.893125E-02 -2.754248E-01  1.643317E+01

 displacements (vx,vy,vz) for set SENSOR and time  0.3296875E-01

      2895  9.917086E-02 -3.106049E-01  1.540274E+01

 displacements (vx,vy,vz) for set SENSOR and time  0.3312500E-01

      2895  1.292686E-01 -3.438316E-01  1.508177E+01

 displacements (vx,vy,vz) for set SENSOR and time  0.3328125E-01

      2895  1.474247E-01 -3.722667E-01  1.550546E+01

 displacements (vx,vy,vz) for set SENSOR and time  0.3343750E-01

      2895  1.542589E-01 -3.931820E-01  1.659978E+01

 displacements (vx,vy,vz) for set SENSOR and time  0.3359375E-01

      2895  1.523406E-01 -4.043186E-01  1.820606E+01

 displacements (vx,vy,vz) for set SENSOR and time  0.3375000E-01

      2895  1.453869E-01 -4.042543E-01  2.011896E+01

 displacements (vx,vy,vz) for set SENSOR and time  0.3390625E-01

      2895  1.373302E-01 -3.927005E-01  2.212884E+01

 displacements (vx,vy,vz) for set SENSOR and time  0.3406250E-01

      2895  1.314681E-01 -3.706583E-01  2.405922E+01

 displacements (vx,vy,vz) for set SENSOR and time  0.3421875E-01

      2895  1.298688E-01 -3.403866E-01  2.579139E+01

 displacements (vx,vy,vz) for set SENSOR and time  0.3437500E-01

      2895  1.331337E-01 -3.051744E-01  2.727195E+01

 displacements (vx,vy,vz) for set SENSOR and time  0.3453125E-01

      2895  1.405240E-01 -2.689506E-01  2.850284E+01

 displacements (vx,vy,vz) for set SENSOR and time  0.3468750E-01

      2895  1.503742E-01 -2.357972E-01  2.951800E+01

 displacements (vx,vy,vz) for set SENSOR and time  0.3484375E-01

      2895  1.606547E-01 -2.094514E-01  3.035371E+01

 displacements (vx,vy,vz) for set SENSOR and time  0.3500000E-01

      2895  1.695241E-01 -1.928781E-01  3.102088E+01

 displacements (vx,vy,vz) for set SENSOR and time  0.3515625E-01

      2895  1.757316E-01 -1.879774E-01  3.148713E+01

 displacements (vx,vy,vz) for set SENSOR and time  0.3531250E-01

      2895  1.787849E-01 -1.954548E-01  3.167383E+01

 displacements (vx,vy,vz) for set SENSOR and time  0.3546875E-01

      2895  1.788684E-01 -2.148499E-01  3.146929E+01

 displacements (vx,vy,vz) for set SENSOR and time  0.3562500E-01

      2895  1.765697E-01 -2.446871E-01  3.075549E+01

 displacements (vx,vy,vz) for set SENSOR and time  0.3578125E-01

      2895  1.725211E-01 -2.826963E-01  2.944194E+01

 displacements (vx,vy,vz) for set SENSOR and time  0.3593750E-01

      2895  1.670820E-01 -3.260527E-01  2.749833E+01

 displacements (vx,vy,vz) for set SENSOR and time  0.3609375E-01

      2895  1.601700E-01 -3.715978E-01  2.497781E+01

 displacements (vx,vy,vz) for set SENSOR and time  0.3625000E-01

      2895  1.513018E-01 -4.160291E-01  2.202410E+01

 displacements (vx,vy,vz) for set SENSOR and time  0.3640625E-01

      2895  1.398376E-01 -4.560659E-01  1.885985E+01

 displacements (vx,vy,vz) for set SENSOR and time  0.3656250E-01

      2895  1.253596E-01 -4.886172E-01  1.575727E+01

 displacements (vx,vy,vz) for set SENSOR and time  0.3671875E-01

      2895  1.080723E-01 -5.109741E-01  1.299646E+01

 displacements (vx,vy,vz) for set SENSOR and time  0.3687500E-01

      2895  8.909211E-02 -5.210399E-01  1.081962E+01

 displacements (vx,vy,vz) for set SENSOR and time  0.3703125E-01

      2895  7.051928E-02 -5.175840E-01  9.390506E+00

 displacements (vx,vy,vz) for set SENSOR and time  0.3718750E-01

      2895  5.523562E-02 -5.004809E-01  8.767390E+00

 displacements (vx,vy,vz) for set SENSOR and time  0.3734375E-01

      2895  4.644019E-02 -4.708762E-01  8.895133E+00

 displacements (vx,vy,vz) for set SENSOR and time  0.3750000E-01

      2895  4.700827E-02 -4.312146E-01  9.617850E+00

 displacements (vx,vy,vz) for set SENSOR and time  0.3765625E-01

      2895  5.881104E-02 -3.850824E-01  1.070936E+01

 displacements (vx,vy,vz) for set SENSOR and time  0.3781250E-01

      2895  8.215642E-02 -3.368465E-01  1.191498E+01

 displacements (vx,vy,vz) for set SENSOR and time  0.3796875E-01

      2895  1.154953E-01 -2.911180E-01  1.299588E+01

 displacements (vx,vy,vz) for set SENSOR and time  0.3812500E-01

      2895  1.554862E-01 -2.521124E-01  1.376721E+01

 displacements (vx,vy,vz) for set SENSOR and time  0.3828125E-01

      2895  1.974346E-01 -2.230130E-01  1.412253E+01

 displacements (vx,vy,vz) for set SENSOR and time  0.3843750E-01

      2895  2.360403E-01 -2.054584E-01  1.404068E+01

 displacements (vx,vy,vz) for set SENSOR and time  0.3859375E-01

      2895  2.663154E-01 -1.992612E-01  1.357484E+01

 displacements (vx,vy,vz) for set SENSOR and time  0.3875000E-01

      2895  2.844887E-01 -2.024266E-01  1.282779E+01

 displacements (vx,vy,vz) for set SENSOR and time  0.3890625E-01

      2895  2.887146E-01 -2.114831E-01  1.191986E+01

 displacements (vx,vy,vz) for set SENSOR and time  0.3906250E-01

      2895  2.794336E-01 -2.220764E-01  1.095753E+01