
 displacements (vx,vy,vz) for set SENSOR and time  0.1562500E-03

      2895 -2.021306E-02 -3.083979E-02 -5.913793E-02

 displacements (vx,vy,vz) for set SENSOR and time  0.3125000E-03

      2895 -1.197576E-01 -1.812359E-01 -2.566895E-01

 displacements (vx,vy,vz) for set SENSOR and time  0.4687500E-03

      2895 -2.325392E-01 -3.449500E-01 -6.103319E-02

 displacements (vx,vy,vz) for set SENSOR and time  0.6250000E-03

      2895 -3.326020E-01 -4.770442E-01  9.341710E-01

 displacements (vx,vy,vz) for set SENSOR and time  0.7812500E-03

      2895 -4.155401E-01 -5.676895E-01  2.928358E+00

 displacements (vx,vy,vz) for set SENSOR and time  0.9375000E-03

      2895 -4.786151E-01 -6.122522E-01  5.944878E+00

 displacements (vx,vy,vz) for set SENSOR and time  0.1093750E-02

      2895 -5.209256E-01 -6.115094E-01  9.834811E+00

 displacements (vx,vy,vz) for set SENSOR and time  0.1250000E-02

      2895 -5.433523E-01 -5.710977E-01  1.431256E+01

 displacements (vx,vy,vz) for set SENSOR and time  0.1406250E-02

      2895 -5.482886E-01 -5.003876E-01  1.901431E+01

 displacements (vx,vy,vz) for set SENSOR and time  0.1562500E-02

      2895 -5.392001E-01 -4.110546E-01  2.356612E+01

 displacements (vx,vy,vz) for set SENSOR and time  0.1718750E-02

      2895 -5.200724E-01 -3.156247E-01  2.764702E+01

 displacements (vx,vy,vz) for set SENSOR and time  0.1875000E-02

      2895 -4.948226E-01 -2.262133E-01  3.103462E+01

 displacements (vx,vy,vz) for set SENSOR and time  0.2031250E-02

      2895 -4.667542E-01 -1.535712E-01  3.362544E+01

 displacements (vx,vy,vz) for set SENSOR and time  0.2187500E-02

      2895 -4.381318E-01 -1.064390E-01  3.542823E+01

 displacements (vx,vy,vz) for set SENSOR and time  0.2343750E-02

      2895 -4.099386E-01 -9.113023E-02  3.653508E+01

 displacements (vx,vy,vz) for set SENSOR and time  0.2500000E-02

      2895 -3.818607E-01 -1.112305E-01  3.707968E+01

 displacements (vx,vy,vz) for set SENSOR and time  0.2656250E-02

      2895 -3.525133E-01 -1.673272E-01  3.719454E+01

 displacements (vx,vy,vz) for set SENSOR and time  0.2812500E-02

      2895 -3.198891E-01 -2.567581E-01  3.697836E+01

 displacements (vx,vy,vz) for set SENSOR and time  0.2968750E-02

      2895 -2.819736E-01 -3.734573E-01  3.648132E+01

 displacements (vx,vy,vz) for set SENSOR and time  0.3125000E-02

      2895 -2.374338E-01 -5.080436E-01  3.571080E+01

 displacements (vx,vy,vz) for set SENSOR and time  0.3281250E-02

      2895 -1.862639E-01 -6.483188E-01  3.465483E+01

 displacements (vx,vy,vz) for set SENSOR and time  0.3437500E-02

      2895 -1.302566E-01 -7.802915E-01  3.331512E+01

 displacements (vx,vy,vz) for set SENSOR and time  0.3593750E-02

      2895 -7.318132E-02 -8.897327E-01  3.173960E+01

 displacements (vx,vy,vz) for set SENSOR and time  0.3750000E-02

      2895 -2.058508E-02 -9.641179E-01  3.004388E+01

 displacements (vx,vy,vz) for set SENSOR and time  0.3906250E-02

      2895  2.081008E-02 -9.946658E-01  2.841394E+01

 displacements (vx,vy,vz) for set SENSOR and time  0.4062500E-02

      2895  4.406453E-02 -9.780839E-01  2.708708E+01

 displacements (vx,vy,vz) for set SENSOR and time  0.4218750E-02

      2895  4.320679E-02 -9.176168E-01  2.631383E+01

 displacements (vx,vy,vz) for set SENSOR and time  0.4375000E-02

      2895  1.445573E-02 -8.230781E-01  2.630833E+01

 displacements (vx,vy,vz) for set SENSOR and time  0.4531250E-02

      2895 -4.274947E-02 -7.097252E-01  2.719844E+01

 displacements (vx,vy,vz) for set SENSOR and time  0.4687500E-02

      2895 -1.251359E-01 -5.960688E-01  2.898727E+01

 displacements (vx,vy,vz) for set SENSOR and time  0.4843750E-02

      2895 -2.255726E-01 -5.009493E-01  3.153620E+01

 displacements (vx,vy,vz) for set SENSOR and time  0.5000000E-02

      2895 -3.337146E-01 -4.403949E-01  3.457484E+01

 displacements (vx,vy,vz) for set SENSOR and time  0.5156250E-02

      2895 -4.372719E-01 -4.248641E-01  3.773765E+01

 displacements (vx,vy,vz) for set SENSOR and time  0.5312500E-02

      2895 -5.237328E-01 -4.574254E-01  4.062136E+01

 displacements (vx,vy,vz) for set SENSOR and time  0.5468750E-02

      2895 -5.822661E-01 -5.332620E-01  4.285238E+01

 displacements (vx,vy,vz) for set SENSOR and time  0.5625000E-02

      2895 -6.054638E-01 -6.406234E-01  4.415102E+01

 displacements (vx,vy,vz) for set SENSOR and time  0.5781250E-02

      2895 -5.905932E-01 -7.630527E-01  4.438016E+01

 displacements (vx,vy,vz) for set SENSOR and time  0.5937500E-02

      2895 -5.400947E-01 -8.824488E-01  4.356849E+01

 displacements (vx,vy,vz) for set SENSOR and time  0.6093750E-02

      2895 -4.611972E-01 -9.823519E-01  4.190406E+01

 displacements (vx,vy,vz) for set SENSOR and time  0.6250000E-02

      2895 -3.646839E-01 -1.050795E+00  3.969971E+01

 displacements (vx,vy,vz) for set SENSOR and time  0.6406250E-02

      2895 -2.630133E-01 -1.082168E+00  3.733743E+01

 displacements (vx,vy,vz) for set SENSOR and time  0.6562500E-02

      2895 -1.681337E-01 -1.077747E+00  3.520291E+01

 displacements (vx,vy,vz) for set SENSOR and time  0.6718750E-02

      2895 -8.940150E-02 -1.044855E+00  3.362294E+01

 displacements (vx,vy,vz) for set SENSOR and time  0.6875000E-02

      2895 -3.200668E-02 -9.948727E-01  3.281737E+01

 displacements (vx,vy,vz) for set SENSOR and time  0.7031250E-02

      2895  3.787378E-03 -9.405940E-01  3.287367E+01

 displacements (vx,vy,vz) for set SENSOR and time  0.7187500E-02

      2895  2.243593E-02 -8.934964E-01  3.374751E+01

 displacements (vx,vy,vz) for set SENSOR and time  0.7343750E-02

      2895  3.197843E-02 -8.615212E-01  3.528687E+01

 displacements (vx,vy,vz) for set SENSOR and time  0.7500000E-02

      2895  4.220434E-02 -8.477927E-01  3.727299E+01

 displacements (vx,vy,vz) for set SENSOR and time  0.7656250E-02

      2895  6.248768E-02 -8.504900E-01  3.946824E+01

 displacements (vx,vy,vz) for set SENSOR and time  0.7812500E-02

      2895  9.972510E-02 -8.638182E-01  4.166056E+01

 displacements (vx,vy,vz) for set SENSOR and time  0.7968750E-02

      2895  1.567879E-01 -8.797898E-01  4.369550E+01

 displacements (vx,vy,vz) for set SENSOR and time  0.8125000E-02

      2895  2.317901E-01 -8.903697E-01  4.549058E+01

 displacements (vx,vy,vz) for set SENSOR and time  0.8281250E-02

      2895  3.183051E-01 -8.894847E-01  4.703101E+01

 displacements (vx,vy,vz) for set SENSOR and time  0.8437500E-02

      2895  4.064692E-01 -8.744634E-01  4.834993E+01

 displacements (vx,vy,vz) for set SENSOR and time  0.8593750E-02

      2895  4.847346E-01 -8.466247E-01  4.950010E+01

 displacements (vx,vy,vz) for set SENSOR and time  0.8750000E-02

      2895  5.419108E-01 -8.109367E-01  5.052484E+01

 displacements (vx,vy,vz) for set SENSOR and time  0.8906250E-02

      2895  5.690924E-01 -7.748777E-01  5.143626E+01

 displacements (vx,vy,vz) for set SENSOR and time  0.9062500E-02

      2895  5.611132E-01 -7.467852E-01  5.220596E+01

 displacements (vx,vy,vz) for set SENSOR and time  0.9218750E-02

      2895  5.172807E-01 -7.340725E-01  5.277033E+01

 displacements (vx,vy,vz) for set SENSOR and time  0.9375000E-02

      2895  4.413069E-01 -7.416837E-01  5.304864E+01

 displacements (vx,vy,vz) for set SENSOR and time  0.9531250E-02

      2895  3.405156E-01 -7.710822E-01  5.296879E+01

 displacements (vx,vy,vz) for set SENSOR and time  0.9687500E-02

      2895  2.245467E-01 -8.199332E-01  5.249387E+01

 displacements (vx,vy,vz) for set SENSOR and time  0.9843750E-02

      2895  1.038523E-01 -8.824905E-01  5.164235E+01

 displacements (vx,vy,vz) for set SENSOR and time  0.1000000E-01

      2895 -1.170932E-02 -9.505629E-01  5.049615E+01

 displacements (vx,vy,vz) for set SENSOR and time  0.1015625E-01

      2895 -1.139400E-01 -1.014846E+00  4.919402E+01

 displacements (vx,vy,vz) for set SENSOR and time  0.1031250E-01

      2895 -1.968922E-01 -1.066362E+00  4.791085E+01

 displacements (vx,vy,vz) for set SENSOR and time  0.1046875E-01

      2895 -2.569773E-01 -1.097772E+00  4.682710E+01

 displacements (vx,vy,vz) for set SENSOR and time  0.1062500E-01

      2895 -2.926952E-01 -1.104379E+00  4.609485E+01

 displacements (vx,vy,vz) for set SENSOR and time  0.1078125E-01

      2895 -3.041610E-01 -1.084703E+00  4.580787E+01

 displacements (vx,vy,vz) for set SENSOR and time  0.1093750E-01

      2895 -2.926221E-01 -1.040612E+00  4.598245E+01

 displacements (vx,vy,vz) for set SENSOR and time  0.1109375E-01

      2895 -2.601158E-01 -9.770286E-01  4.655315E+01

 displacements (vx,vy,vz) for set SENSOR and time  0.1125000E-01

      2895 -2.093433E-01 -9.012863E-01  4.738488E+01

 displacements (vx,vy,vz) for set SENSOR and time  0.1140625E-01

      2895 -1.437366E-01 -8.222315E-01  4.829868E+01

 displacements (vx,vy,vz) for set SENSOR and time  0.1156250E-01

      2895 -6.761707E-02 -7.491736E-01  4.910609E+01

 displacements (vx,vy,vz) for set SENSOR and time  0.1171875E-01

      2895  1.370246E-02 -6.907854E-01  4.964487E+01

 displacements (vx,vy,vz) for set SENSOR and time  0.1187500E-01

      2895  9.401636E-02 -6.540633E-01  4.980896E+01

 displacements (vx,vy,vz) for set SENSOR and time  0.1203125E-01

      2895  1.666149E-01 -6.434511E-01  4.956651E+01

 displacements (vx,vy,vz) for set SENSOR and time  0.1218750E-01

      2895  2.249665E-01 -6.602356E-01  4.896290E+01

 displacements (vx,vy,vz) for set SENSOR and time  0.1234375E-01

      2895  2.635996E-01 -7.023040E-01  4.810840E+01

 displacements (vx,vy,vz) for set SENSOR and time  0.1250000E-01

      2895  2.790096E-01 -7.643261E-01  4.715379E+01

 displacements (vx,vy,vz) for set SENSOR and time  0.1265625E-01

      2895  2.703761E-01 -8.383750E-01  4.625928E+01

 displacements (vx,vy,vz) for set SENSOR and time  0.1281250E-01

      2895  2.398940E-01 -9.149330E-01  4.556342E+01

 displacements (vx,vy,vz) for set SENSOR and time  0.1296875E-01

      2895  1.925847E-01 -9.841651E-01  4.515851E+01

 displacements (vx,vy,vz) for set SENSOR and time  0.1312500E-01

      2895  1.355672E-01 -1.037278E+00  4.507689E+01

 displacements (vx,vy,vz) for set SENSOR and time  0.1328125E-01

      2895  7.688583E-02 -1.067759E+00  4.529044E+01

 displacements (vx,vy,vz) for set SENSOR and time  0.1343750E-01

      2895  2.410303E-02 -1.072282E+00  4.572224E+01

 displacements (vx,vy,vz) for set SENSOR and time  0.1359375E-01

      2895 -1.707197E-02 -1.051131E+00  4.626701E+01

 displacements (vx,vy,vz) for set SENSOR and time  0.1375000E-01

      2895 -4.383733E-02 -1.008069E+00  4.681506E+01

 displacements (vx,vy,vz) for set SENSOR and time  0.1390625E-01

      2895 -5.681072E-02 -9.496724E-01  4.727414E+01

 displacements (vx,vy,vz) for set SENSOR and time  0.1406250E-01

      2895 -5.987943E-02 -8.842641E-01  4.758445E+01

 displacements (vx,vy,vz) for set SENSOR and time  0.1421875E-01

      2895 -5.940346E-02 -8.206516E-01  4.772395E+01

 displacements (vx,vy,vz) for set SENSOR and time  0.1437500E-01

      2895 -6.291948E-02 -7.668931E-01  4.770343E+01

 displacements (vx,vy,vz) for set SENSOR and time  0.1453125E-01

      2895 -7.759710E-02 -7.293081E-01  4.755370E+01

 displacements (vx,vy,vz) for set SENSOR and time  0.1468750E-01

      2895 -1.087491E-01 -7.118756E-01  4.730861E+01

 displacements (vx,vy,vz) for set SENSOR and time  0.1484375E-01

      2895 -1.586856E-01 -7.160692E-01  4.698885E+01

 displacements (vx,vy,vz) for set SENSOR and time  0.1500000E-01

      2895 -2.261287E-01 -7.410813E-01  4.659099E+01

 displacements (vx,vy,vz) for set SENSOR and time  0.1515625E-01

      2895 -3.062940E-01 -7.843059E-01  4.608480E+01

 displacements (vx,vy,vz) for set SENSOR and time  0.1531250E-01

      2895 -3.916075E-01 -8.419146E-01  4.541968E+01

 displacements (vx,vy,vz) for set SENSOR and time  0.1546875E-01

      2895 -4.729123E-01 -9.093665E-01  4.453881E+01

 displacements (vx,vy,vz) for set SENSOR and time  0.1562500E-01

      2895 -5.409271E-01 -9.817515E-01  4.339757E+01

 displacements (vx,vy,vz) for set SENSOR and time  0.1578125E-01

      2895 -5.876894E-01 -1.053942E+00  4.198152E+01

 displacements (vx,vy,vz) for set SENSOR and time  0.1593750E-01

      2895 -6.077308E-01 -1.120616E+00  4.031927E+01

 displacements (vx,vy,vz) for set SENSOR and time  0.1609375E-01

      2895 -5.988017E-01 -1.176266E+00  3.848681E+01

 displacements (vx,vy,vz) for set SENSOR and time  0.1625000E-01

      2895 -5.620593E-01 -1.215342E+00  3.660127E+01

 displacements (vx,vy,vz) for set SENSOR and time  0.1640625E-01

      2895 -5.017321E-01 -1.232611E+00  3.480517E+01

 displacements (vx,vy,vz) for set SENSOR and time  0.1656250E-01

      2895 -4.243710E-01 -1.223782E+00  3.324369E+01

 displacements (vx,vy,vz) for set SENSOR and time  0.1671875E-01

      2895 -3.378479E-01 -1.186312E+00  3.203969E+01

 displacements (vx,vy,vz) for set SENSOR and time  0.1687500E-01

      2895 -2.502898E-01 -1.120232E+00  3.127132E+01

 displacements (vx,vy,vz) for set SENSOR and time  0.1703125E-01

      2895 -1.691159E-01 -1.028787E+00  3.095697E+01

 displacements (vx,vy,vz) for set SENSOR and time  0.1718750E-01

      2895 -1.002985E-01 -9.186443E-01  3.105042E+01

 displacements (vx,vy,vz) for set SENSOR and time  0.1734375E-01

      2895 -4.791269E-02 -7.995402E-01  3.144717E+01

 displacements (vx,vy,vz) for set SENSOR and time  0.1750000E-01

      2895 -1.397625E-02 -6.832953E-01  3.200060E+01

 displacements (vx,vy,vz) for set SENSOR and time  0.1765625E-01

      2895  1.460979E-03 -5.823028E-01  3.254463E+01

 displacements (vx,vy,vz) for set SENSOR and time  0.1781250E-01

      2895  4.654188E-05 -5.077160E-01  3.291855E+01

 displacements (vx,vy,vz) for set SENSOR and time  0.1796875E-01

      2895 -1.525491E-02 -4.676581E-01  3.298944E+01

 displacements (vx,vy,vz) for set SENSOR and time  0.1812500E-01

      2895 -4.059184E-02 -4.658043E-01  3.266850E+01

 displacements (vx,vy,vz) for set SENSOR and time  0.1828125E-01

      2895 -7.166606E-02 -5.006371E-01  3.191926E+01

 displacements (vx,vy,vz) for set SENSOR and time  0.1843750E-01

      2895 -1.041620E-01 -5.655556E-01  3.075718E+01

 displacements (vx,vy,vz) for set SENSOR and time  0.1859375E-01

      2895 -1.341549E-01 -6.498510E-01  2.924245E+01

 displacements (vx,vy,vz) for set SENSOR and time  0.1875000E-01

      2895 -1.584862E-01 -7.403871E-01  2.746835E+01

 displacements (vx,vy,vz) for set SENSOR and time  0.1890625E-01

      2895 -1.750880E-01 -8.236800E-01  2.554847E+01

 displacements (vx,vy,vz) for set SENSOR and time  0.1906250E-01

      2895 -1.832203E-01 -8.879882E-01  2.360530E+01

 displacements (vx,vy,vz) for set SENSOR and time  0.1921875E-01

      2895 -1.835780E-01 -9.250282E-01  2.176186E+01

 displacements (vx,vy,vz) for set SENSOR and time  0.1937500E-01

      2895 -1.782238E-01 -9.310116E-01  2.013640E+01

 displacements (vx,vy,vz) for set SENSOR and time  0.1953125E-01

      2895 -1.703162E-01 -9.068467E-01  1.883934E+01

 displacements (vx,vy,vz) for set SENSOR and time  0.1968750E-01

      2895 -1.636326E-01 -8.575220E-01  1.797045E+01

 displacements (vx,vy,vz) for set SENSOR and time  0.1984375E-01

      2895 -1.619266E-01 -7.908506E-01  1.761434E+01

 displacements (vx,vy,vz) for set SENSOR and time  0.2000000E-01

      2895 -1.681984E-01 -7.158738E-01  1.783327E+01

 displacements (vx,vy,vz) for set SENSOR and time  0.2015625E-01

      2895 -1.839904E-01 -6.412668E-01  1.865710E+01

 displacements (vx,vy,vz) for set SENSOR and time  0.2031250E-01

      2895 -2.088386E-01 -5.740547E-01  2.007215E+01

 displacements (vx,vy,vz) for set SENSOR and time  0.2046875E-01

      2895 -2.399968E-01 -5.188529E-01  2.201152E+01

 displacements (vx,vy,vz) for set SENSOR and time  0.2062500E-01

      2895 -2.725244E-01 -4.777075E-01  2.435042E+01

 displacements (vx,vy,vz) for set SENSOR and time  0.2078125E-01

      2895 -2.997683E-01 -4.504665E-01  2.690938E+01

 displacements (vx,vy,vz) for set SENSOR and time  0.2093750E-01

      2895 -3.142058E-01 -4.355068E-01  2.946741E+01

 displacements (vx,vy,vz) for set SENSOR and time  0.2109375E-01

      2895 -3.085472E-01 -4.305754E-01  3.178474E+01

 displacements (vx,vy,vz) for set SENSOR and time  0.2125000E-01

      2895 -2.769393E-01 -4.335167E-01  3.363290E+01

 displacements (vx,vy,vz) for set SENSOR and time  0.2140625E-01

      2895 -2.160813E-01 -4.427120E-01  3.482761E+01

 displacements (vx,vy,vz) for set SENSOR and time  0.2156250E-01

      2895 -1.260625E-01 -4.571652E-01  3.525876E+01

 displacements (vx,vy,vz) for set SENSOR and time  0.2171875E-01

      2895 -1.076069E-02 -4.762703E-01  3.491153E+01

 displacements (vx,vy,vz) for set SENSOR and time  0.2187500E-01

      2895  1.222943E-01 -4.993893E-01  3.387379E+01

 displacements (vx,vy,vz) for set SENSOR and time  0.2203125E-01

      2895  2.626117E-01 -5.254129E-01  3.232734E+01

 displacements (vx,vy,vz) for set SENSOR and time  0.2218750E-01

      2895  3.979131E-01 -5.524742E-01  3.052318E+01

 displacements (vx,vy,vz) for set SENSOR and time  0.2234375E-01

      2895  5.156384E-01 -5.779297E-01  2.874451E+01

 displacements (vx,vy,vz) for set SENSOR and time  0.2250000E-01

      2895  6.045719E-01 -5.986439E-01  2.726351E+01

 displacements (vx,vy,vz) for set SENSOR and time  0.2265625E-01

      2895  6.563509E-01 -6.115195E-01  2.629939E+01

 displacements (vx,vy,vz) for set SENSOR and time  0.2281250E-01

      2895  6.666263E-01 -6.141472E-01  2.598523E+01

 displacements (vx,vy,vz) for set SENSOR and time  0.2296875E-01

      2895  6.356924E-01 -6.054077E-01  2.634982E+01

 displacements (vx,vy,vz) for set SENSOR and time  0.2312500E-01

      2895  5.684780E-01 -5.858726E-01  2.731748E+01

 displacements (vx,vy,vz) for set SENSOR and time  0.2328125E-01

      2895  4.738871E-01 -5.578935E-01  2.872591E+01

 displacements (vx,vy,vz) for set SENSOR and time  0.2343750E-01

      2895  3.635784E-01 -5.253470E-01  3.035825E+01

 displacements (vx,vy,vz) for set SENSOR and time  0.2359375E-01

      2895  2.503588E-01 -4.930846E-01  3.198312E+01

 displacements (vx,vy,vz) for set SENSOR and time  0.2375000E-01

      2895  1.464292E-01 -4.661996E-01  3.339488E+01

 displacements (vx,vy,vz) for set SENSOR and time  0.2390625E-01

      2895  6.174699E-02 -4.492618E-01  3.444640E+01

 displacements (vx,vy,vz) for set SENSOR and time  0.2406250E-01

      2895  2.750816E-03 -4.456674E-01  3.506870E+01

 displacements (vx,vy,vz) for set SENSOR and time  0.2421875E-01

      2895 -2.836060E-02 -4.572154E-01  3.527424E+01

 displacements (vx,vy,vz) for set SENSOR and time  0.2437500E-01

      2895 -3.369217E-02 -4.839616E-01  3.514434E+01

 displacements (vx,vy,vz) for set SENSOR and time  0.2453125E-01

      2895 -1.905988E-02 -5.243394E-01  3.480448E+01

 displacements (vx,vy,vz) for set SENSOR and time  0.2468750E-01

      2895  7.152488E-03 -5.754793E-01  3.439313E+01

 displacements (vx,vy,vz) for set SENSOR and time  0.2484375E-01

      2895  3.549425E-02 -6.336343E-01  3.403147E+01

 displacements (vx,vy,vz) for set SENSOR and time  0.2500000E-01

      2895  5.705843E-02 -6.946137E-01  3.380008E+01

 displacements (vx,vy,vz) for set SENSOR and time  0.2515625E-01

      2895  6.494038E-02 -7.541549E-01  3.372737E+01

 displacements (vx,vy,vz) for set SENSOR and time  0.2531250E-01

      2895  5.531327E-02 -8.082024E-01  3.379138E+01

 displacements (vx,vy,vz) for set SENSOR and time  0.2546875E-01

      2895  2.795767E-02 -8.531024E-01  3.393363E+01

 displacements (vx,vy,vz) for set SENSOR and time  0.2562500E-01

      2895 -1.382291E-02 -8.857517E-01  3.408096E+01

 displacements (vx,vy,vz) for set SENSOR and time  0.2578125E-01

      2895 -6.386501E-02 -9.037466E-01  3.416975E+01

 displacements (vx,vy,vz) for set SENSOR and time  0.2593750E-01

      2895 -1.142568E-01 -9.055643E-01  3.416641E+01

 displacements (vx,vy,vz) for set SENSOR and time  0.2609375E-01

      2895 -1.566991E-01 -8.907784E-01  3.407934E+01

 displacements (vx,vy,vz) for set SENSOR and time  0.2625000E-01

      2895 -1.838852E-01 -8.602753E-01  3.395932E+01

 displacements (vx,vy,vz) for set SENSOR and time  0.2640625E-01

      2895 -1.906755E-01 -8.164081E-01  3.388859E+01

 displacements (vx,vy,vz) for set SENSOR and time  0.2656250E-01

      2895 -1.748930E-01 -7.630148E-01  3.396108E+01

 displacements (vx,vy,vz) for set SENSOR and time  0.2671875E-01

      2895 -1.376332E-01 -7.052391E-01  3.425858E+01

 displacements (vx,vy,vz) for set SENSOR and time  0.2687500E-01

      2895 -8.307293E-02 -6.491284E-01  3.482857E+01

 displacements (vx,vy,vz) for set SENSOR and time  0.2703125E-01

      2895 -1.784026E-02 -6.010279E-01  3.566895E+01

 displacements (vx,vy,vz) for set SENSOR and time  0.2718750E-01

      2895  4.992749E-02 -5.668451E-01  3.672343E+01

 displacements (vx,vy,vz) for set SENSOR and time  0.2734375E-01

      2895  1.116751E-01 -5.512914E-01  3.788890E+01

 displacements (vx,vy,vz) for set SENSOR and time  0.2750000E-01

      2895  1.595032E-01 -5.572279E-01  3.903333E+01

 displacements (vx,vy,vz) for set SENSOR and time  0.2765625E-01

      2895  1.870821E-01 -5.852287E-01  4.002050E+01

 displacements (vx,vy,vz) for set SENSOR and time  0.2781250E-01

      2895  1.903034E-01 -6.334394E-01  4.073630E+01

 displacements (vx,vy,vz) for set SENSOR and time  0.2796875E-01

      2895  1.676244E-01 -6.977568E-01  4.111082E+01

 displacements (vx,vy,vz) for set SENSOR and time  0.2812500E-01

      2895  1.201040E-01 -7.722967E-01  4.113168E+01

 displacements (vx,vy,vz) for set SENSOR and time  0.2828125E-01

      2895  5.117126E-02 -8.500726E-01  4.084569E+01

 displacements (vx,vy,vz) for set SENSOR and time  0.2843750E-01

      2895 -3.381083E-02 -9.237759E-01  4.034857E+01

 displacements (vx,vy,vz) for set SENSOR and time  0.2859375E-01

      2895 -1.281186E-01 -9.865456E-01  3.976498E+01

 displacements (vx,vy,vz) for set SENSOR and time  0.2875000E-01

      2895 -2.243135E-01 -1.032634E+00  3.922321E+01

 displacements (vx,vy,vz) for set SENSOR and time  0.2890625E-01

      2895 -3.149078E-01 -1.057902E+00  3.882981E+01

 displacements (vx,vy,vz) for set SENSOR and time  0.2906250E-01

      2895 -3.930080E-01 -1.060126E+00  3.864944E+01

 displacements (vx,vy,vz) for set SENSOR and time  0.2921875E-01

      2895 -4.529007E-01 -1.039118E+00  3.869401E+01

 displacements (vx,vy,vz) for set SENSOR and time  0.2937500E-01

      2895 -4.905414E-01 -9.966789E-01  3.892299E+01

 displacements (vx,vy,vz) for set SENSOR and time  0.2953125E-01

      2895 -5.039097E-01 -9.364331E-01  3.925454E+01

 displacements (vx,vy,vz) for set SENSOR and time  0.2968750E-01

      2895 -4.931855E-01 -8.635390E-01  3.958460E+01

 displacements (vx,vy,vz) for set SENSOR and time  0.2984375E-01

      2895 -4.607095E-01 -7.843042E-01  3.980978E+01

 displacements (vx,vy,vz) for set SENSOR and time  0.3000000E-01

      2895 -4.107057E-01 -7.056925E-01  3.984889E+01

 displacements (vx,vy,vz) for set SENSOR and time  0.3015625E-01

      2895 -3.487697E-01 -6.347281E-01  3.965870E+01

 displacements (vx,vy,vz) for set SENSOR and time  0.3031250E-01

      2895 -2.811650E-01 -5.778156E-01  3.924086E+01

 displacements (vx,vy,vz) for set SENSOR and time  0.3046875E-01

      2895 -2.140074E-01 -5.400214E-01  3.863876E+01

 displacements (vx,vy,vz) for set SENSOR and time  0.3062500E-01

      2895 -1.524500E-01 -5.243979E-01  3.792557E+01

 displacements (vx,vy,vz) for set SENSOR and time  0.3078125E-01

      2895 -9.999482E-02 -5.314555E-01  3.718639E+01

 displacements (vx,vy,vz) for set SENSOR and time  0.3093750E-01

      2895 -5.805389E-02 -5.588938E-01  3.649874E+01

 displacements (vx,vy,vz) for set SENSOR and time  0.3109375E-01

      2895 -2.584600E-02 -6.016857E-01  3.591564E+01

 displacements (vx,vy,vz) for set SENSOR and time  0.3125000E-01

      2895 -6.645090E-04 -6.525595E-01  3.545500E+01

 displacements (vx,vy,vz) for set SENSOR and time  0.3140625E-01

      2895  2.151575E-02 -7.028603E-01  3.509740E+01

 displacements (vx,vy,vz) for set SENSOR and time  0.3156250E-01

      2895  4.518942E-02 -7.436918E-01  3.479246E+01

 displacements (vx,vy,vz) for set SENSOR and time  0.3171875E-01

      2895  7.437730E-02 -7.671800E-01  3.447207E+01

 displacements (vx,vy,vz) for set SENSOR and time  0.3187500E-01

      2895  1.117609E-01 -7.676523E-01  3.406731E+01

 displacements (vx,vy,vz) for set SENSOR and time  0.3203125E-01

      2895  1.580584E-01 -7.425277E-01  3.352512E+01

 displacements (vx,vy,vz) for set SENSOR and time  0.3218750E-01

      2895  2.117641E-01 -6.927503E-01  3.282114E+01

 displacements (vx,vy,vz) for set SENSOR and time  0.3234375E-01

      2895  2.693061E-01 -6.226727E-01  3.196572E+01

 displacements (vx,vy,vz) for set SENSOR and time  0.3250000E-01

      2895  3.255979E-01 -5.393950E-01  3.100213E+01

 displacements (vx,vy,vz) for set SENSOR and time  0.3265625E-01

      2895  3.748829E-01 -4.516657E-01  2.999735E+01

 displacements (vx,vy,vz) for set SENSOR and time  0.3281250E-01

      2895  4.117170E-01 -3.685332E-01  2.902771E+01

 displacements (vx,vy,vz) for set SENSOR and time  0.3296875E-01

      2895  4.319058E-01 -2.979817E-01  2.816260E+01

 displacements (vx,vy,vz) for set SENSOR and time  0.3312500E-01

      2895  4.332278E-01 -2.457893E-01  2.744975E+01

 displacements (vx,vy,vz) for set SENSOR and time  0.3328125E-01

      2895  4.158158E-01 -2.147953E-01  2.690531E+01

 displacements (vx,vy,vz) for set SENSOR and time  0.3343750E-01

      2895  3.821400E-01 -2.046868E-01  2.651062E+01

 displacements (vx,vy,vz) for set SENSOR and time  0.3359375E-01

      2895  3.366105E-01 -2.123106E-01  2.621627E+01

 displacements (vx,vy,vz) for set SENSOR and time  0.3375000E-01

      2895  2.848887E-01 -2.324198E-01  2.595230E+01

 displacements (vx,vy,vz) for set SENSOR and time  0.3390625E-01

      2895  2.330449E-01 -2.586900E-01  2.564225E+01

 displacements (vx,vy,vz) for set SENSOR and time  0.3406250E-01

      2895  1.867183E-01 -2.848018E-01  2.521792E+01

 displacements (vx,vy,vz) for set SENSOR and time  0.3421875E-01

      2895  1.504232E-01 -3.053903E-01  2.463183E+01

 displacements (vx,vy,vz) for set SENSOR and time  0.3437500E-01

      2895  1.271013E-01 -3.167084E-01  2.386479E+01

 displacements (vx,vy,vz) for set SENSOR and time  0.3453125E-01

      2895  1.179676E-01 -3.169196E-01  2.292745E+01

 displacements (vx,vy,vz) for set SENSOR and time  0.3468750E-01

      2895  1.226330E-01 -3.060170E-01  2.185568E+01

 displacements (vx,vy,vz) for set SENSOR and time  0.3484375E-01

      2895  1.394379E-01 -2.854403E-01  2.070122E+01

 displacements (vx,vy,vz) for set SENSOR and time  0.3500000E-01

      2895  1.659023E-01 -2.575094E-01  1.951991E+01

 displacements (vx,vy,vz) for set SENSOR and time  0.3515625E-01

      2895  1.991898E-01 -2.248157E-01  1.835994E+01

 displacements (vx,vy,vz) for set SENSOR and time  0.3531250E-01

      2895  2.364997E-01 -1.896989E-01  1.725274E+01

 displacements (vx,vy,vz) for set SENSOR and time  0.3546875E-01

      2895  2.753367E-01 -1.538998E-01  1.620803E+01

 displacements (vx,vy,vz) for set SENSOR and time  0.3562500E-01

      2895  3.136432E-01 -1.184300E-01  1.521372E+01

 displacements (vx,vy,vz) for set SENSOR and time  0.3578125E-01

      2895  3.498173E-01 -8.364512E-02  1.424018E+01

 displacements (vx,vy,vz) for set SENSOR and time  0.3593750E-01

      2895  3.826587E-01 -4.946928E-02  1.324739E+01

 displacements (vx,vy,vz) for set SENSOR and time  0.3609375E-01

      2895  4.112928E-01 -1.569179E-02  1.219321E+01

 displacements (vx,vy,vz) for set SENSOR and time  0.3625000E-01

      2895  4.351132E-01  1.774435E-02  1.104074E+01

 displacements (vx,vy,vz) for set SENSOR and time  0.3640625E-01

      2895  4.537586E-01  5.052989E-02  9.763496E+00

 displacements (vx,vy,vz) for set SENSOR and time  0.3656250E-01

      2895  4.671222E-01  8.189476E-02  8.347400E+00

 displacements (vx,vy,vz) for set SENSOR and time  0.3671875E-01

      2895  4.753643E-01  1.106443E-01  6.790129E+00

 displacements (vx,vy,vz) for set SENSOR and time  0.3687500E-01

      2895  4.788989E-01  1.353127E-01  5.098440E+00

 displacements (vx,vy,vz) for set SENSOR and time  0.3703125E-01

      2895  4.783232E-01  1.544013E-01  3.284959E+00

 displacements (vx,vy,vz) for set SENSOR and time  0.3718750E-01

      2895  4.742824E-01  1.666586E-01  1.365695E+00

 displacements (vx,vy,vz) for set SENSOR and time  0.3734375E-01

      2895  4.672824E-01  1.713579E-01 -6.407645E-01

 displacements (vx,vy,vz) for set SENSOR and time  0.3750000E-01

      2895  4.574903E-01  1.685301E-01 -2.712160E+00

 displacements (vx,vy,vz) for set SENSOR and time  0.3765625E-01

      2895  4.445754E-01  1.591181E-01 -4.820085E+00

 displacements (vx,vy,vz) for set SENSOR and time  0.3781250E-01

      2895  4.276469E-01  1.450230E-01 -6.927301E+00

 displacements (vx,vy,vz) for set SENSOR and time  0.3796875E-01

      2895  4.053298E-01  1.290240E-01 -8.986304E+00

 displacements (vx,vy,vz) for set SENSOR and time  0.3812500E-01

      2895  3.759916E-01  1.145647E-01 -1.094047E+01

 displacements (vx,vy,vz) for set SENSOR and time  0.3828125E-01

      2895  3.380990E-01  1.054084E-01 -1.272854E+01

 displacements (vx,vy,vz) for set SENSOR and time  0.3843750E-01

      2895  2.906453E-01  1.051905E-01 -1.429236E+01

 displacements (vx,vy,vz) for set SENSOR and time  0.3859375E-01

      2895  2.335675E-01  1.169092E-01 -1.558675E+01

 displacements (vx,vy,vz) for set SENSOR and time  0.3875000E-01

      2895  1.680617E-01  1.424238E-01 -1.658972E+01

 displacements (vx,vy,vz) for set SENSOR and time  0.3890625E-01

      2895  9.671549E-02  1.820376E-01 -1.731054E+01

 displacements (vx,vy,vz) for set SENSOR and time  0.3906250E-01

      2895  2.340862E-02  2.342493E-01 -1.779369E+01