
 displacements (vx,vy,vz) for set SENSOR and time  0.1562500E-03

      2895 -2.109875E-02  2.088419E-02  2.367566E-01

 displacements (vx,vy,vz) for set SENSOR and time  0.3125000E-03

      2895 -1.205964E-01  1.178456E-01  1.406657E+00

 displacements (vx,vy,vz) for set SENSOR and time  0.4687500E-03

      2895 -2.141137E-01  2.021842E-01  2.745601E+00

 displacements (vx,vy,vz) for set SENSOR and time  0.6250000E-03

      2895 -2.623418E-01  2.313947E-01  3.941268E+00

 displacements (vx,vy,vz) for set SENSOR and time  0.7812500E-03

      2895 -2.596290E-01  2.003884E-01  4.904509E+00

 displacements (vx,vy,vz) for set SENSOR and time  0.9375000E-03

      2895 -2.134855E-01  1.203220E-01  5.549817E+00

 displacements (vx,vy,vz) for set SENSOR and time  0.1093750E-02

      2895 -1.413436E-01  1.337296E-02  5.824454E+00

 displacements (vx,vy,vz) for set SENSOR and time  0.1250000E-02

      2895 -6.461572E-02 -9.482793E-02  5.734524E+00

 displacements (vx,vy,vz) for set SENSOR and time  0.1406250E-02

      2895 -2.134928E-03 -1.819849E-01  5.353531E+00

 displacements (vx,vy,vz) for set SENSOR and time  0.1562500E-02

      2895  3.485707E-02 -2.331304E-01  4.806589E+00

 displacements (vx,vy,vz) for set SENSOR and time  0.1718750E-02

      2895  4.470021E-02 -2.416183E-01  4.234633E+00

 displacements (vx,vy,vz) for set SENSOR and time  0.1875000E-02

      2895  3.398369E-02 -2.083188E-01  3.752210E+00

 displacements (vx,vy,vz) for set SENSOR and time  0.2031250E-02

      2895  1.379117E-02 -1.404988E-01  3.415100E+00

 displacements (vx,vy,vz) for set SENSOR and time  0.2187500E-02

      2895 -4.814577E-03 -5.106047E-02  3.209302E+00

 displacements (vx,vy,vz) for set SENSOR and time  0.2343750E-02

      2895 -1.435584E-02  4.236041E-02  3.063652E+00

 displacements (vx,vy,vz) for set SENSOR and time  0.2500000E-02

      2895 -1.246778E-02  1.195530E-01  2.879213E+00

 displacements (vx,vy,vz) for set SENSOR and time  0.2656250E-02

      2895 -1.286062E-03  1.618117E-01  2.563780E+00

 displacements (vx,vy,vz) for set SENSOR and time  0.2812500E-02

      2895  1.453355E-02  1.572972E-01  2.060560E+00

 displacements (vx,vy,vz) for set SENSOR and time  0.2968750E-02

      2895  2.999804E-02  1.057099E-01  1.364665E+00

 displacements (vx,vy,vz) for set SENSOR and time  0.3125000E-02

      2895  4.120800E-02  1.989035E-02  5.261736E-01

 displacements (vx,vy,vz) for set SENSOR and time  0.3281250E-02

      2895  4.571400E-02 -7.710718E-02 -3.584773E-01

 displacements (vx,vy,vz) for set SENSOR and time  0.3437500E-02

      2895  4.214918E-02 -1.589806E-01 -1.164561E+00

 displacements (vx,vy,vz) for set SENSOR and time  0.3593750E-02

      2895  2.983327E-02 -2.047250E-01 -1.764799E+00

 displacements (vx,vy,vz) for set SENSOR and time  0.3750000E-02

      2895  8.895791E-03 -2.053668E-01 -2.060069E+00

 displacements (vx,vy,vz) for set SENSOR and time  0.3906250E-02

      2895 -1.904676E-02 -1.661576E-01 -2.009230E+00

 displacements (vx,vy,vz) for set SENSOR and time  0.4062500E-02

      2895 -5.016840E-02 -1.034810E-01 -1.648544E+00

 displacements (vx,vy,vz) for set SENSOR and time  0.4218750E-02

      2895 -7.839687E-02 -3.803624E-02 -1.090182E+00

 displacements (vx,vy,vz) for set SENSOR and time  0.4375000E-02

      2895 -9.653309E-02  1.262907E-02 -4.938752E-01

 displacements (vx,vy,vz) for set SENSOR and time  0.4531250E-02

      2895 -9.837717E-02  3.917739E-02 -1.585447E-02

 displacements (vx,vy,vz) for set SENSOR and time  0.4687500E-02

      2895 -8.107516E-02  4.149077E-02  2.490111E-01

 displacements (vx,vy,vz) for set SENSOR and time  0.4843750E-02

      2895 -4.662206E-02  2.601514E-02  3.085734E-01

 displacements (vx,vy,vz) for set SENSOR and time  0.5000000E-02

      2895 -1.723178E-03  1.390519E-03  2.773354E-01

 displacements (vx,vy,vz) for set SENSOR and time  0.5156250E-02

      2895  4.407971E-02 -2.529149E-02  3.352091E-01

 displacements (vx,vy,vz) for set SENSOR and time  0.5312500E-02

      2895  8.132160E-02 -5.008662E-02  6.528420E-01

 displacements (vx,vy,vz) for set SENSOR and time  0.5468750E-02

      2895  1.034020E-01 -7.157143E-02  1.312271E+00

 displacements (vx,vy,vz) for set SENSOR and time  0.5625000E-02

      2895  1.081723E-01 -8.910043E-02  2.257381E+00

 displacements (vx,vy,vz) for set SENSOR and time  0.5781250E-02

      2895  9.783639E-02 -1.013985E-01  3.298775E+00

 displacements (vx,vy,vz) for set SENSOR and time  0.5937500E-02

      2895  7.745147E-02 -1.063858E-01  4.175296E+00

 displacements (vx,vy,vz) for set SENSOR and time  0.6093750E-02

      2895  5.286395E-02 -1.021545E-01  4.649224E+00

 displacements (vx,vy,vz) for set SENSOR and time  0.6250000E-02

      2895  2.899445E-02 -8.826478E-02  4.595934E+00

 displacements (vx,vy,vz) for set SENSOR and time  0.6406250E-02

      2895  8.999621E-03 -6.643762E-02  4.049880E+00

 displacements (vx,vy,vz) for set SENSOR and time  0.6562500E-02

      2895 -5.732304E-03 -4.024257E-02  3.187407E+00

 displacements (vx,vy,vz) for set SENSOR and time  0.6718750E-02

      2895 -1.520210E-02 -1.409639E-02  2.254793E+00

 displacements (vx,vy,vz) for set SENSOR and time  0.6875000E-02

      2895 -2.050544E-02  7.722074E-03  1.474117E+00

 displacements (vx,vy,vz) for set SENSOR and time  0.7031250E-02

      2895 -2.376157E-02  2.151422E-02  9.684247E-01

 displacements (vx,vy,vz) for set SENSOR and time  0.7187500E-02

      2895 -2.798880E-02  2.411598E-02  7.370703E-01

 displacements (vx,vy,vz) for set SENSOR and time  0.7343750E-02

      2895 -3.648058E-02  1.294026E-02  6.873566E-01

 displacements (vx,vy,vz) for set SENSOR and time  0.7500000E-02

      2895 -5.148050E-02 -1.328453E-02  7.019266E-01

 displacements (vx,vy,vz) for set SENSOR and time  0.7656250E-02

      2895 -7.250377E-02 -5.302276E-02  7.058261E-01

 displacements (vx,vy,vz) for set SENSOR and time  0.7812500E-02

      2895 -9.516635E-02 -1.004301E-01  7.000820E-01

 displacements (vx,vy,vz) for set SENSOR and time  0.7968750E-02

      2895 -1.114794E-01 -1.450713E-01  7.479143E-01

 displacements (vx,vy,vz) for set SENSOR and time  0.8125000E-02

      2895 -1.120694E-01 -1.738199E-01  9.250126E-01

 displacements (vx,vy,vz) for set SENSOR and time  0.8281250E-02

      2895 -8.985261E-02 -1.748909E-01  1.263531E+00

 displacements (vx,vy,vz) for set SENSOR and time  0.8437500E-02

      2895 -4.378025E-02 -1.426821E-01  1.721436E+00

 displacements (vx,vy,vz) for set SENSOR and time  0.8593750E-02

      2895  1.910630E-02 -8.129488E-02  2.194083E+00

 displacements (vx,vy,vz) for set SENSOR and time  0.8750000E-02

      2895  8.461548E-02 -4.814358E-03  2.561646E+00

 displacements (vx,vy,vz) for set SENSOR and time  0.8906250E-02

      2895  1.354625E-01  6.632237E-02  2.746748E+00

 displacements (vx,vy,vz) for set SENSOR and time  0.9062500E-02

      2895  1.571584E-01  1.118004E-01  2.751504E+00

 displacements (vx,vy,vz) for set SENSOR and time  0.9218750E-02

      2895  1.434757E-01  1.183012E-01  2.654513E+00

 displacements (vx,vy,vz) for set SENSOR and time  0.9375000E-02

      2895  9.920144E-02  8.404012E-02  2.569811E+00

 displacements (vx,vy,vz) for set SENSOR and time  0.9531250E-02

      2895  3.887710E-02  1.918733E-02  2.589665E+00

 displacements (vx,vy,vz) for set SENSOR and time  0.9687500E-02

      2895 -1.817063E-02 -5.785777E-02  2.740881E+00

 displacements (vx,vy,vz) for set SENSOR and time  0.9843750E-02

      2895 -5.466992E-02 -1.266765E-01  2.976041E+00

 displacements (vx,vy,vz) for set SENSOR and time  0.1000000E-01

      2895 -6.149393E-02 -1.710186E-01  3.201786E+00

 displacements (vx,vy,vz) for set SENSOR and time  0.1015625E-01

      2895 -4.068047E-02 -1.827905E-01  3.326505E+00

 displacements (vx,vy,vz) for set SENSOR and time  0.1031250E-01

      2895 -4.298681E-03 -1.628828E-01  3.300479E+00

 displacements (vx,vy,vz) for set SENSOR and time  0.1046875E-01

      2895  3.029083E-02 -1.192959E-01  3.127405E+00

 displacements (vx,vy,vz) for set SENSOR and time  0.1062500E-01

      2895  4.690081E-02 -6.392290E-02  2.843665E+00

 displacements (vx,vy,vz) for set SENSOR and time  0.1078125E-01

      2895  3.629682E-02 -9.408818E-03  2.480796E+00

 displacements (vx,vy,vz) for set SENSOR and time  0.1093750E-01

      2895 -7.024648E-04  3.312606E-02  2.036358E+00

 displacements (vx,vy,vz) for set SENSOR and time  0.1109375E-01

      2895 -5.369414E-02  5.549675E-02  1.473400E+00

 displacements (vx,vy,vz) for set SENSOR and time  0.1125000E-01

      2895 -1.063206E-01  5.342807E-02  7.514905E-01

 displacements (vx,vy,vz) for set SENSOR and time  0.1140625E-01

      2895 -1.416535E-01  2.738151E-02 -1.272825E-01

 displacements (vx,vy,vz) for set SENSOR and time  0.1156250E-01

      2895 -1.475224E-01 -1.697767E-02 -1.084887E+00

 displacements (vx,vy,vz) for set SENSOR and time  0.1171875E-01

      2895 -1.202003E-01 -6.928498E-02 -1.969588E+00

 displacements (vx,vy,vz) for set SENSOR and time  0.1187500E-01

      2895 -6.550064E-02 -1.164706E-01 -2.599076E+00

 displacements (vx,vy,vz) for set SENSOR and time  0.1203125E-01

      2895  2.855618E-03 -1.461225E-01 -2.827645E+00

 displacements (vx,vy,vz) for set SENSOR and time  0.1218750E-01

      2895  6.703223E-02 -1.502571E-01 -2.606400E+00

 displacements (vx,vy,vz) for set SENSOR and time  0.1234375E-01

      2895  1.099625E-01 -1.280275E-01 -2.006943E+00

 displacements (vx,vy,vz) for set SENSOR and time  0.1250000E-01

      2895  1.200382E-01 -8.610803E-02 -1.196023E+00

 displacements (vx,vy,vz) for set SENSOR and time  0.1265625E-01

      2895  9.436754E-02 -3.642052E-02 -3.723514E-01

 displacements (vx,vy,vz) for set SENSOR and time  0.1281250E-01

      2895  3.969596E-02  7.946632E-03  3.049787E-01

 displacements (vx,vy,vz) for set SENSOR and time  0.1296875E-01

      2895 -2.934499E-02  3.693575E-02  7.638681E-01

 displacements (vx,vy,vz) for set SENSOR and time  0.1312500E-01

      2895 -9.427314E-02  4.613244E-02  1.023203E+00

 displacements (vx,vy,vz) for set SENSOR and time  0.1328125E-01

      2895 -1.379879E-01  3.691733E-02  1.157011E+00

 displacements (vx,vy,vz) for set SENSOR and time  0.1343750E-01

      2895 -1.496691E-01  1.450608E-02  1.242221E+00

 displacements (vx,vy,vz) for set SENSOR and time  0.1359375E-01

      2895 -1.278226E-01 -1.481221E-02  1.319963E+00

 displacements (vx,vy,vz) for set SENSOR and time  0.1375000E-01

      2895 -8.048035E-02 -4.573697E-02  1.390308E+00

 displacements (vx,vy,vz) for set SENSOR and time  0.1390625E-01

      2895 -2.246793E-02 -7.446174E-02  1.439519E+00

 displacements (vx,vy,vz) for set SENSOR and time  0.1406250E-01

      2895  2.936719E-02 -9.783856E-02  1.479038E+00

 displacements (vx,vy,vz) for set SENSOR and time  0.1421875E-01

      2895  6.138695E-02 -1.122712E-01  1.567692E+00

 displacements (vx,vy,vz) for set SENSOR and time  0.1437500E-01

      2895  6.714497E-02 -1.135420E-01  1.797638E+00

 displacements (vx,vy,vz) for set SENSOR and time  0.1453125E-01

      2895  4.888917E-02 -9.811604E-02  2.245712E+00

 displacements (vx,vy,vz) for set SENSOR and time  0.1468750E-01

      2895  1.624663E-02 -6.541392E-02  2.913659E+00

 displacements (vx,vy,vz) for set SENSOR and time  0.1484375E-01

      2895 -1.729018E-02 -1.972997E-02  3.691004E+00

 displacements (vx,vy,vz) for set SENSOR and time  0.1500000E-01

      2895 -3.878858E-02  2.958218E-02  4.366701E+00

 displacements (vx,vy,vz) for set SENSOR and time  0.1515625E-01

      2895 -3.975880E-02  7.026346E-02  4.693152E+00

 displacements (vx,vy,vz) for set SENSOR and time  0.1531250E-01

      2895 -1.837538E-02  9.104235E-02  4.479755E+00

 displacements (vx,vy,vz) for set SENSOR and time  0.1546875E-01

      2895  2.043518E-02  8.568543E-02  3.676295E+00

 displacements (vx,vy,vz) for set SENSOR and time  0.1562500E-01

      2895  6.682058E-02  5.541380E-02  2.408101E+00

 displacements (vx,vy,vz) for set SENSOR and time  0.1578125E-01

      2895  1.090153E-01  8.584988E-03  9.447921E-01

 displacements (vx,vy,vz) for set SENSOR and time  0.1593750E-01

      2895  1.366028E-01 -4.222053E-02 -3.866306E-01

 displacements (vx,vy,vz) for set SENSOR and time  0.1609375E-01

      2895  1.431629E-01 -8.442271E-02 -1.309437E+00

 displacements (vx,vy,vz) for set SENSOR and time  0.1625000E-01

      2895  1.277028E-01 -1.092084E-01 -1.682454E+00

 displacements (vx,vy,vz) for set SENSOR and time  0.1640625E-01

      2895  9.461690E-02 -1.134587E-01 -1.531060E+00

 displacements (vx,vy,vz) for set SENSOR and time  0.1656250E-01

      2895  5.227230E-02 -9.944250E-02 -1.016504E+00

 displacements (vx,vy,vz) for set SENSOR and time  0.1671875E-01

      2895  1.062629E-02 -7.291643E-02 -3.621785E-01

 displacements (vx,vy,vz) for set SENSOR and time  0.1687500E-01

      2895 -2.148668E-02 -4.082041E-02  2.291288E-01

 displacements (vx,vy,vz) for set SENSOR and time  0.1703125E-01

      2895 -3.866575E-02 -9.606325E-03  6.340680E-01

 displacements (vx,vy,vz) for set SENSOR and time  0.1718750E-01

      2895 -4.020430E-02  1.542726E-02  8.260765E-01

 displacements (vx,vy,vz) for set SENSOR and time  0.1734375E-01

      2895 -2.993660E-02  3.014004E-02  8.543958E-01

 displacements (vx,vy,vz) for set SENSOR and time  0.1750000E-01

      2895 -1.473405E-02  3.157501E-02  8.034998E-01

 displacements (vx,vy,vz) for set SENSOR and time  0.1765625E-01

      2895 -2.151778E-03  1.846949E-02  7.554669E-01

 displacements (vx,vy,vz) for set SENSOR and time  0.1781250E-01

      2895  1.989863E-03 -7.856373E-03  7.699112E-01

 displacements (vx,vy,vz) for set SENSOR and time  0.1796875E-01

      2895 -4.701077E-03 -4.286591E-02  8.825498E-01

 displacements (vx,vy,vz) for set SENSOR and time  0.1812500E-01

      2895 -2.072405E-02 -7.916127E-02  1.112592E+00

 displacements (vx,vy,vz) for set SENSOR and time  0.1828125E-01

      2895 -4.149304E-02 -1.081409E-01  1.466630E+00

 displacements (vx,vy,vz) for set SENSOR and time  0.1843750E-01

      2895 -6.101049E-02 -1.225555E-01  1.932884E+00

 displacements (vx,vy,vz) for set SENSOR and time  0.1859375E-01

      2895 -7.375850E-02 -1.189684E-01  2.469740E+00

 displacements (vx,vy,vz) for set SENSOR and time  0.1875000E-01

      2895 -7.619412E-02 -9.902602E-02  2.999546E+00

 displacements (vx,vy,vz) for set SENSOR and time  0.1890625E-01

      2895 -6.749791E-02 -6.891721E-02  3.418074E+00

 displacements (vx,vy,vz) for set SENSOR and time  0.1906250E-01

      2895 -4.955668E-02 -3.721879E-02  3.621734E+00

 displacements (vx,vy,vz) for set SENSOR and time  0.1921875E-01

      2895 -2.639299E-02 -1.204259E-02  3.543615E+00

 displacements (vx,vy,vz) for set SENSOR and time  0.1937500E-01

      2895 -3.302081E-03  1.341135E-03  3.182073E+00

 displacements (vx,vy,vz) for set SENSOR and time  0.1953125E-01

      2895  1.414277E-02  1.551961E-03  2.606842E+00

 displacements (vx,vy,vz) for set SENSOR and time  0.1968750E-01

      2895  2.117540E-02 -9.337254E-03  1.937304E+00

 displacements (vx,vy,vz) for set SENSOR and time  0.1984375E-01

      2895  1.498475E-02 -2.719999E-02  1.300826E+00

 displacements (vx,vy,vz) for set SENSOR and time  0.2000000E-01

      2895 -4.232644E-03 -4.738841E-02  7.891218E-01

 displacements (vx,vy,vz) for set SENSOR and time  0.2015625E-01

      2895 -3.266333E-02 -6.574465E-02  4.318018E-01

 displacements (vx,vy,vz) for set SENSOR and time  0.2031250E-01

      2895 -6.314374E-02 -7.893100E-02  1.980675E-01

 displacements (vx,vy,vz) for set SENSOR and time  0.2046875E-01

      2895 -8.658041E-02 -8.439462E-02  2.386025E-02

 displacements (vx,vy,vz) for set SENSOR and time  0.2062500E-01

      2895 -9.439397E-02 -8.044725E-02 -1.502090E-01

 displacements (vx,vy,vz) for set SENSOR and time  0.2078125E-01

      2895 -8.134896E-02 -6.671750E-02 -3.491479E-01

 displacements (vx,vy,vz) for set SENSOR and time  0.2093750E-01

      2895 -4.777541E-02 -4.479867E-02 -5.557292E-01

 displacements (vx,vy,vz) for set SENSOR and time  0.2109375E-01

      2895 -2.099053E-04 -1.857755E-02 -7.261365E-01

 displacements (vx,vy,vz) for set SENSOR and time  0.2125000E-01

      2895  5.004523E-02  6.261586E-03 -8.185057E-01

 displacements (vx,vy,vz) for set SENSOR and time  0.2140625E-01

      2895  9.017458E-02  2.367980E-02 -8.175954E-01

 displacements (vx,vy,vz) for set SENSOR and time  0.2156250E-01

      2895  1.098874E-01  2.924647E-02 -7.417413E-01

 displacements (vx,vy,vz) for set SENSOR and time  0.2171875E-01

      2895  1.048133E-01  2.180793E-02 -6.284421E-01

 displacements (vx,vy,vz) for set SENSOR and time  0.2187500E-01

      2895  7.799140E-02  4.068271E-03 -5.068512E-01

 displacements (vx,vy,vz) for set SENSOR and time  0.2203125E-01

      2895  3.886778E-02 -1.826201E-02 -3.728360E-01

 displacements (vx,vy,vz) for set SENSOR and time  0.2218750E-01

      2895  1.506745E-04 -3.843993E-02 -1.813306E-01

 displacements (vx,vy,vz) for set SENSOR and time  0.2234375E-01

      2895 -2.633785E-02 -5.096179E-02  1.379504E-01

 displacements (vx,vy,vz) for set SENSOR and time  0.2250000E-01

      2895 -3.333885E-02 -5.319834E-02  6.472265E-01

 displacements (vx,vy,vz) for set SENSOR and time  0.2265625E-01

      2895 -2.013088E-02 -4.580153E-02  1.364648E+00

 displacements (vx,vy,vz) for set SENSOR and time  0.2281250E-01

      2895  7.740350E-03 -3.188995E-02  2.242256E+00

 displacements (vx,vy,vz) for set SENSOR and time  0.2296875E-01

      2895  4.068989E-02 -1.555441E-02  3.168513E+00

 displacements (vx,vy,vz) for set SENSOR and time  0.2312500E-01

      2895  6.835527E-02 -4.309752E-04  3.995176E+00

 displacements (vx,vy,vz) for set SENSOR and time  0.2328125E-01

      2895  8.274123E-02  1.110124E-02  4.578019E+00

 displacements (vx,vy,vz) for set SENSOR and time  0.2343750E-01

      2895  8.030091E-02  1.797297E-02  4.815819E+00

 displacements (vx,vy,vz) for set SENSOR and time  0.2359375E-01

      2895  6.249047E-02  2.001231E-02  4.674029E+00

 displacements (vx,vy,vz) for set SENSOR and time  0.2375000E-01

      2895  3.486908E-02  1.751093E-02  4.186968E+00

 displacements (vx,vy,vz) for set SENSOR and time  0.2390625E-01

      2895  5.207722E-03  1.107410E-02  3.441304E+00

 displacements (vx,vy,vz) for set SENSOR and time  0.2406250E-01

      2895 -1.876625E-02  1.751944E-03  2.549825E+00

 displacements (vx,vy,vz) for set SENSOR and time  0.2421875E-01

      2895 -3.139861E-02 -8.805114E-03  1.625797E+00

 displacements (vx,vy,vz) for set SENSOR and time  0.2437500E-01

      2895 -3.047193E-02 -1.845930E-02  7.648801E-01

 displacements (vx,vy,vz) for set SENSOR and time  0.2453125E-01

      2895 -1.764606E-02 -2.506406E-02  3.621796E-02

 displacements (vx,vy,vz) for set SENSOR and time  0.2468750E-01

      2895  2.098404E-03 -2.712320E-02 -5.199463E-01

 displacements (vx,vy,vz) for set SENSOR and time  0.2484375E-01

      2895  2.189697E-02 -2.427549E-02 -8.921091E-01

 displacements (vx,vy,vz) for set SENSOR and time  0.2500000E-01

      2895  3.499542E-02 -1.731549E-02 -1.097052E+00

 displacements (vx,vy,vz) for set SENSOR and time  0.2515625E-01

      2895  3.679030E-02 -7.729496E-03 -1.178402E+00

 displacements (vx,vy,vz) for set SENSOR and time  0.2531250E-01

      2895  2.631141E-02  2.974519E-03 -1.201510E+00

 displacements (vx,vy,vz) for set SENSOR and time  0.2546875E-01

      2895  6.626886E-03  1.373259E-02 -1.242334E+00

 displacements (vx,vy,vz) for set SENSOR and time  0.2562500E-01

      2895 -1.605469E-02  2.391006E-02 -1.370631E+00

 displacements (vx,vy,vz) for set SENSOR and time  0.2578125E-01

      2895 -3.437528E-02  3.286019E-02 -1.631126E+00

 displacements (vx,vy,vz) for set SENSOR and time  0.2593750E-01

      2895 -4.227941E-02  3.942972E-02 -2.028492E+00

 displacements (vx,vy,vz) for set SENSOR and time  0.2609375E-01

      2895 -3.707108E-02  4.188132E-02 -2.521659E+00

 displacements (vx,vy,vz) for set SENSOR and time  0.2625000E-01

      2895 -2.031536E-02  3.848715E-02 -3.030224E+00

 displacements (vx,vy,vz) for set SENSOR and time  0.2640625E-01

      2895  2.767471E-03  2.862125E-02 -3.451792E+00

 displacements (vx,vy,vz) for set SENSOR and time  0.2656250E-01

      2895  2.519687E-02  1.378619E-02 -3.685651E+00

 displacements (vx,vy,vz) for set SENSOR and time  0.2671875E-01

      2895  4.069800E-02 -2.101430E-03 -3.656562E+00

 displacements (vx,vy,vz) for set SENSOR and time  0.2687500E-01

      2895  4.580438E-02 -1.356692E-02 -3.332984E+00

 displacements (vx,vy,vz) for set SENSOR and time  0.2703125E-01

      2895  4.082354E-02 -1.542467E-02 -2.736023E+00

 displacements (vx,vy,vz) for set SENSOR and time  0.2718750E-01

      2895  2.936108E-02 -4.918836E-03 -1.937832E+00

 displacements (vx,vy,vz) for set SENSOR and time  0.2734375E-01

      2895  1.667435E-02  1.678973E-02 -1.050184E+00

 displacements (vx,vy,vz) for set SENSOR and time  0.2750000E-01

      2895  7.566518E-03  4.453454E-02 -2.052586E-01

 displacements (vx,vy,vz) for set SENSOR and time  0.2765625E-01

      2895  4.661323E-03  7.061939E-02  4.683804E-01

 displacements (vx,vy,vz) for set SENSOR and time  0.2781250E-01

      2895  7.682169E-03  8.734577E-02  8.707676E-01

 displacements (vx,vy,vz) for set SENSOR and time  0.2796875E-01

      2895  1.391169E-02  8.962111E-02  9.517478E-01

 displacements (vx,vy,vz) for set SENSOR and time  0.2812500E-01

      2895  1.953035E-02  7.665355E-02  7.233818E-01

 displacements (vx,vy,vz) for set SENSOR and time  0.2828125E-01

      2895  2.122308E-02  5.214347E-02  2.594198E-01

 displacements (vx,vy,vz) for set SENSOR and time  0.2843750E-01

      2895  1.740876E-02  2.300330E-02 -3.197145E-01

 displacements (vx,vy,vz) for set SENSOR and time  0.2859375E-01

      2895  8.672648E-03 -2.819683E-03 -8.741354E-01

 displacements (vx,vy,vz) for set SENSOR and time  0.2875000E-01

      2895 -2.657167E-03 -1.860408E-02 -1.277660E+00

 displacements (vx,vy,vz) for set SENSOR and time  0.2890625E-01

      2895 -1.351128E-02 -2.050457E-02 -1.448202E+00

 displacements (vx,vy,vz) for set SENSOR and time  0.2906250E-01

      2895 -2.120070E-02 -8.248846E-03 -1.366860E+00

 displacements (vx,vy,vz) for set SENSOR and time  0.2921875E-01

      2895 -2.422530E-02  1.508671E-02 -1.080259E+00

 displacements (vx,vy,vz) for set SENSOR and time  0.2937500E-01

      2895 -2.252498E-02  4.396386E-02 -6.857154E-01

 displacements (vx,vy,vz) for set SENSOR and time  0.2953125E-01

      2895 -1.718297E-02  7.163883E-02 -3.039289E-01

 displacements (vx,vy,vz) for set SENSOR and time  0.2968750E-01

      2895 -9.799637E-03  9.157287E-02 -4.733693E-02

 displacements (vx,vy,vz) for set SENSOR and time  0.2984375E-01

      2895 -1.843454E-03  9.884346E-02  7.129370E-03

 displacements (vx,vy,vz) for set SENSOR and time  0.3000000E-01

      2895  5.761280E-03  9.136983E-02 -1.657034E-01

 displacements (vx,vy,vz) for set SENSOR and time  0.3015625E-01

      2895  1.269376E-02  7.067025E-02 -5.367730E-01

 displacements (vx,vy,vz) for set SENSOR and time  0.3031250E-01

      2895  1.899595E-02  4.182252E-02 -1.032911E+00

 displacements (vx,vy,vz) for set SENSOR and time  0.3046875E-01

      2895  2.470806E-02  1.242019E-02 -1.555614E+00

 displacements (vx,vy,vz) for set SENSOR and time  0.3062500E-01

      2895  2.958990E-02 -9.374431E-03 -2.003349E+00

 displacements (vx,vy,vz) for set SENSOR and time  0.3078125E-01

      2895  3.307628E-02 -1.719020E-02 -2.292615E+00

 displacements (vx,vy,vz) for set SENSOR and time  0.3093750E-01

      2895  3.449116E-02 -8.455125E-03 -2.374040E+00

 displacements (vx,vy,vz) for set SENSOR and time  0.3109375E-01

      2895  3.341486E-02  1.469879E-02 -2.241071E+00

 displacements (vx,vy,vz) for set SENSOR and time  0.3125000E-01

      2895  3.001809E-02  4.603712E-02 -1.930044E+00

 displacements (vx,vy,vz) for set SENSOR and time  0.3140625E-01

      2895  2.518015E-02  7.717444E-02 -1.511667E+00

 displacements (vx,vy,vz) for set SENSOR and time  0.3156250E-01

      2895  2.029755E-02  1.001908E-01 -1.075518E+00

 displacements (vx,vy,vz) for set SENSOR and time  0.3171875E-01

      2895  1.682707E-02  1.099729E-01 -7.107654E-01

 displacements (vx,vy,vz) for set SENSOR and time  0.3187500E-01

      2895  1.573519E-02  1.054769E-01 -4.875905E-01

 displacements (vx,vy,vz) for set SENSOR and time  0.3203125E-01

      2895  1.708691E-02  8.956976E-02 -4.439875E-01

 displacements (vx,vy,vz) for set SENSOR and time  0.3218750E-01

      2895  1.996930E-02  6.767291E-02 -5.812598E-01

 displacements (vx,vy,vz) for set SENSOR and time  0.3234375E-01

      2895  2.281807E-02  4.585063E-02 -8.689089E-01

 displacements (vx,vy,vz) for set SENSOR and time  0.3250000E-01

      2895  2.404975E-02  2.908322E-02 -1.256556E+00

 displacements (vx,vy,vz) for set SENSOR and time  0.3265625E-01

      2895  2.276581E-02  2.024912E-02 -1.688350E+00

 displacements (vx,vy,vz) for set SENSOR and time  0.3281250E-01

      2895  1.924820E-02  1.994977E-02 -2.114964E+00

 displacements (vx,vy,vz) for set SENSOR and time  0.3296875E-01

      2895  1.503072E-02  2.696044E-02 -2.499974E+00

 displacements (vx,vy,vz) for set SENSOR and time  0.3312500E-01

      2895  1.248374E-02  3.893193E-02 -2.820300E+00

 displacements (vx,vy,vz) for set SENSOR and time  0.3328125E-01

      2895  1.403020E-02  5.303180E-02 -3.063066E+00

 displacements (vx,vy,vz) for set SENSOR and time  0.3343750E-01

      2895  2.124826E-02  6.640592E-02 -3.222345E+00

 displacements (vx,vy,vz) for set SENSOR and time  0.3359375E-01

      2895  3.416105E-02  7.651675E-02 -3.298316E+00

 displacements (vx,vy,vz) for set SENSOR and time  0.3375000E-01

      2895  5.095430E-02  8.146669E-02 -3.298910E+00

 displacements (vx,vy,vz) for set SENSOR and time  0.3390625E-01

      2895  6.822816E-02  8.033541E-02 -3.241594E+00

 displacements (vx,vy,vz) for set SENSOR and time  0.3406250E-01

      2895  8.173027E-02  7.343108E-02 -3.152017E+00

 displacements (vx,vy,vz) for set SENSOR and time  0.3421875E-01

      2895  8.738466E-02  6.228882E-02 -3.057514E+00

 displacements (vx,vy,vz) for set SENSOR and time  0.3437500E-01

      2895  8.235687E-02  4.930964E-02 -2.976486E+00

 displacements (vx,vy,vz) for set SENSOR and time  0.3453125E-01

      2895  6.588763E-02  3.709665E-02 -2.907766E+00

 displacements (vx,vy,vz) for set SENSOR and time  0.3468750E-01

      2895  3.967785E-02  2.771386E-02 -2.825512E+00

 displacements (vx,vy,vz) for set SENSOR and time  0.3484375E-01

      2895  7.700390E-03  2.215939E-02 -2.683742E+00

 displacements (vx,vy,vz) for set SENSOR and time  0.3500000E-01

      2895 -2.456217E-02  2.025878E-02 -2.430746E+00

 displacements (vx,vy,vz) for set SENSOR and time  0.3515625E-01

      2895 -5.131681E-02  2.098619E-02 -2.028939E+00

 displacements (vx,vy,vz) for set SENSOR and time  0.3531250E-01

      2895 -6.783006E-02  2.302054E-02 -1.472542E+00

 displacements (vx,vy,vz) for set SENSOR and time  0.3546875E-01

      2895 -7.161843E-02  2.525067E-02 -7.955351E-01

 displacements (vx,vy,vz) for set SENSOR and time  0.3562500E-01

      2895 -6.310990E-02  2.700881E-02 -6.584715E-02

 displacements (vx,vy,vz) for set SENSOR and time  0.3578125E-01

      2895 -4.553897E-02  2.798981E-02  6.326584E-01

 displacements (vx,vy,vz) for set SENSOR and time  0.3593750E-01

      2895 -2.404860E-02  2.799940E-02  1.223743E+00

 displacements (vx,vy,vz) for set SENSOR and time  0.3609375E-01

      2895 -4.226361E-03  2.675886E-02  1.658935E+00

 displacements (vx,vy,vz) for set SENSOR and time  0.3625000E-01

      2895  9.490260E-03  2.393161E-02  1.926889E+00

 displacements (vx,vy,vz) for set SENSOR and time  0.3640625E-01

      2895  1.503135E-02  1.937299E-02  2.049326E+00

 displacements (vx,vy,vz) for set SENSOR and time  0.3656250E-01

      2895  1.313318E-02  1.344130E-02  2.066545E+00

 displacements (vx,vy,vz) for set SENSOR and time  0.3671875E-01

      2895  6.857924E-03  7.146196E-03  2.019477E+00

 displacements (vx,vy,vz) for set SENSOR and time  0.3687500E-01

      2895  3.780223E-04  1.987791E-03  1.935796E+00

 displacements (vx,vy,vz) for set SENSOR and time  0.3703125E-01

      2895 -2.530929E-03 -4.899105E-04  1.824802E+00

 displacements (vx,vy,vz) for set SENSOR and time  0.3718750E-01

      2895  2.463225E-04  7.545860E-04  1.681145E+00

 displacements (vx,vy,vz) for set SENSOR and time  0.3734375E-01

      2895  8.566618E-03  5.860294E-03  1.493477E+00

 displacements (vx,vy,vz) for set SENSOR and time  0.3750000E-01

      2895  2.024872E-02  1.398276E-02  1.252554E+00

 displacements (vx,vy,vz) for set SENSOR and time  0.3765625E-01

      2895  3.195557E-02  2.354400E-02  9.548275E-01

 displacements (vx,vy,vz) for set SENSOR and time  0.3781250E-01

      2895  4.035877E-02  3.267307E-02  6.009471E-01

 displacements (vx,vy,vz) for set SENSOR and time  0.3796875E-01

      2895  4.315196E-02  3.963803E-02  1.919189E-01

 displacements (vx,vy,vz) for set SENSOR and time  0.3812500E-01

      2895  3.959948E-02  4.312820E-02 -2.730052E-01

 displacements (vx,vy,vz) for set SENSOR and time  0.3828125E-01

      2895  3.052908E-02  4.237117E-02 -7.938803E-01

 displacements (vx,vy,vz) for set SENSOR and time  0.3843750E-01

      2895  1.789464E-02  3.717397E-02 -1.363350E+00

 displacements (vx,vy,vz) for set SENSOR and time  0.3859375E-01

      2895  4.155406E-03  2.799148E-02 -1.959035E+00

 displacements (vx,vy,vz) for set SENSOR and time  0.3875000E-01

      2895 -8.290309E-03  1.604014E-02 -2.539719E+00

 displacements (vx,vy,vz) for set SENSOR and time  0.3890625E-01

      2895 -1.748532E-02  3.355056E-03 -3.048717E+00

 displacements (vx,vy,vz) for set SENSOR and time  0.3906250E-01

      2895 -2.210470E-02 -7.376431E-03 -3.424557E+00