
 displacements (vx,vy,vz) for set SENSOR and time  0.1562500E-03

      2895  9.190634E-03  2.356924E-03 -7.558528E-02

 displacements (vx,vy,vz) for set SENSOR and time  0.3125000E-03

      2895  4.750185E-02  1.196180E-02 -3.698050E-01

 displacements (vx,vy,vz) for set SENSOR and time  0.4687500E-03

      2895  6.199044E-02  1.467264E-02 -3.978511E-01

 displacements (vx,vy,vz) for set SENSOR and time  0.6250000E-03

      2895  2.870215E-02  4.704829E-03 -1.854068E-02

 displacements (vx,vy,vz) for set SENSOR and time  0.7812500E-03

      2895 -4.195825E-02 -1.364677E-02  4.799770E-01

 displacements (vx,vy,vz) for set SENSOR and time  0.9375000E-03

      2895 -1.191388E-01 -3.059288E-02  6.023666E-01

 displacements (vx,vy,vz) for set SENSOR and time  0.1093750E-02

      2895 -1.659349E-01 -3.601405E-02 -5.592957E-02

 displacements (vx,vy,vz) for set SENSOR and time  0.1250000E-02

      2895 -1.564715E-01 -2.469999E-02 -1.526178E+00

 displacements (vx,vy,vz) for set SENSOR and time  0.1406250E-02

      2895 -8.752985E-02  1.127646E-03 -3.366201E+00

 displacements (vx,vy,vz) for set SENSOR and time  0.1562500E-02

      2895  2.052528E-02  3.316667E-02 -4.815617E+00

 displacements (vx,vy,vz) for set SENSOR and time  0.1718750E-02

      2895  1.334655E-01  6.124211E-02 -5.142006E+00

 displacements (vx,vy,vz) for set SENSOR and time  0.1875000E-02

      2895  2.184761E-01  7.789877E-02 -4.006084E+00

 displacements (vx,vy,vz) for set SENSOR and time  0.2031250E-02

      2895  2.575690E-01  8.095567E-02 -1.655192E+00

 displacements (vx,vy,vz) for set SENSOR and time  0.2187500E-02

      2895  2.530687E-01  7.301991E-02  1.163467E+00

 displacements (vx,vy,vz) for set SENSOR and time  0.2343750E-02

      2895  2.233102E-01  5.881792E-02  3.536458E+00

 displacements (vx,vy,vz) for set SENSOR and time  0.2500000E-02

      2895  1.915097E-01  4.236184E-02  4.802784E+00

 displacements (vx,vy,vz) for set SENSOR and time  0.2656250E-02

      2895  1.738277E-01  2.576726E-02  4.848384E+00

 displacements (vx,vy,vz) for set SENSOR and time  0.2812500E-02

      2895  1.725340E-01  1.018330E-02  4.127037E+00

 displacements (vx,vy,vz) for set SENSOR and time  0.2968750E-02

      2895  1.771750E-01 -2.290098E-03  3.396134E+00

 displacements (vx,vy,vz) for set SENSOR and time  0.3125000E-02

      2895  1.724034E-01 -7.584538E-03  3.301609E+00

 displacements (vx,vy,vz) for set SENSOR and time  0.3281250E-02

      2895  1.478624E-01 -8.478486E-04  4.025193E+00

 displacements (vx,vy,vz) for set SENSOR and time  0.3437500E-02

      2895  1.047933E-01  2.045270E-02  5.177606E+00

 displacements (vx,vy,vz) for set SENSOR and time  0.3593750E-02

      2895  5.605672E-02  5.336778E-02  5.997149E+00

 displacements (vx,vy,vz) for set SENSOR and time  0.3750000E-02

      2895  1.984445E-02  8.860336E-02  5.756851E+00

 displacements (vx,vy,vz) for set SENSOR and time  0.3906250E-02

      2895  1.059628E-02  1.132939E-01  4.174121E+00

 displacements (vx,vy,vz) for set SENSOR and time  0.4062500E-02

      2895  3.190135E-02  1.166814E-01  1.610975E+00

 displacements (vx,vy,vz) for set SENSOR and time  0.4218750E-02

      2895  7.492844E-02  9.603146E-02 -1.045653E+00

 displacements (vx,vy,vz) for set SENSOR and time  0.4375000E-02

      2895  1.229512E-01  5.950770E-02 -2.775260E+00

 displacements (vx,vy,vz) for set SENSOR and time  0.4531250E-02

      2895  1.594249E-01  2.394122E-02 -2.901726E+00

 displacements (vx,vy,vz) for set SENSOR and time  0.4687500E-02

      2895  1.754163E-01  7.966295E-03 -1.426384E+00

 displacements (vx,vy,vz) for set SENSOR and time  0.4843750E-02

      2895  1.727545E-01  2.352146E-02  9.477354E-01

 displacements (vx,vy,vz) for set SENSOR and time  0.5000000E-02

      2895  1.616525E-01  6.984925E-02  3.116261E+00

 displacements (vx,vy,vz) for set SENSOR and time  0.5156250E-02

      2895  1.544380E-01  1.331549E-01  4.058252E+00

 displacements (vx,vy,vz) for set SENSOR and time  0.5312500E-02

      2895  1.589178E-01  1.924075E-01  3.278005E+00

 displacements (vx,vy,vz) for set SENSOR and time  0.5468750E-02

      2895  1.748598E-01  2.287171E-01  9.997862E-01

 displacements (vx,vy,vz) for set SENSOR and time  0.5625000E-02

      2895  1.952252E-01  2.338609E-01 -1.967561E+00

 displacements (vx,vy,vz) for set SENSOR and time  0.5781250E-02

      2895  2.111440E-01  2.138504E-01 -4.621051E+00

 displacements (vx,vy,vz) for set SENSOR and time  0.5937500E-02

      2895  2.176311E-01  1.857918E-01 -6.215935E+00

 displacements (vx,vy,vz) for set SENSOR and time  0.6093750E-02

      2895  2.167066E-01  1.695286E-01 -6.565332E+00

 displacements (vx,vy,vz) for set SENSOR and time  0.6250000E-02

      2895  2.160737E-01  1.780644E-01 -6.054770E+00

 displacements (vx,vy,vz) for set SENSOR and time  0.6406250E-02

      2895  2.240020E-01  2.113123E-01 -5.382327E+00

 displacements (vx,vy,vz) for set SENSOR and time  0.6562500E-02

      2895  2.432504E-01  2.560860E-01 -5.167175E+00

 displacements (vx,vy,vz) for set SENSOR and time  0.6718750E-02

      2895  2.675632E-01  2.922647E-01 -5.626548E+00

 displacements (vx,vy,vz) for set SENSOR and time  0.6875000E-02

      2895  2.830891E-01  3.022068E-01 -6.478431E+00

 displacements (vx,vy,vz) for set SENSOR and time  0.7031250E-02

      2895  2.745708E-01  2.790745E-01 -7.109174E+00

 displacements (vx,vy,vz) for set SENSOR and time  0.7187500E-02

      2895  2.335752E-01  2.303585E-01 -6.912730E+00

 displacements (vx,vy,vz) for set SENSOR and time  0.7343750E-02

      2895  1.647117E-01  1.751518E-01 -5.626611E+00

 displacements (vx,vy,vz) for set SENSOR and time  0.7500000E-02

      2895  8.643458E-02  1.364930E-01 -3.497191E+00

 displacements (vx,vy,vz) for set SENSOR and time  0.7656250E-02

      2895  2.541436E-02  1.321318E-01 -1.196205E+00

 displacements (vx,vy,vz) for set SENSOR and time  0.7812500E-02

      2895  6.491510E-03  1.675474E-01  4.658085E-01

 displacements (vx,vy,vz) for set SENSOR and time  0.7968750E-02

      2895  4.244425E-02  2.339135E-01  8.869121E-01

 displacements (vx,vy,vz) for set SENSOR and time  0.8125000E-02

      2895  1.281234E-01  3.115818E-01 -8.319543E-02

 displacements (vx,vy,vz) for set SENSOR and time  0.8281250E-02

      2895  2.417144E-01  3.774917E-01 -2.111619E+00

 displacements (vx,vy,vz) for set SENSOR and time  0.8437500E-02

      2895  3.527687E-01  4.135466E-01 -4.562528E+00

 displacements (vx,vy,vz) for set SENSOR and time  0.8593750E-02

      2895  4.336332E-01  4.128360E-01 -6.788974E+00

 displacements (vx,vy,vz) for set SENSOR and time  0.8750000E-02

      2895  4.693896E-01  3.815509E-01 -8.390513E+00

 displacements (vx,vy,vz) for set SENSOR and time  0.8906250E-02

      2895  4.621156E-01  3.360798E-01 -9.319595E+00

 displacements (vx,vy,vz) for set SENSOR and time  0.9062500E-02

      2895  4.278670E-01  2.964903E-01 -9.803860E+00

 displacements (vx,vy,vz) for set SENSOR and time  0.9218750E-02

      2895  3.880717E-01  2.788384E-01 -1.014578E+01

 displacements (vx,vy,vz) for set SENSOR and time  0.9375000E-02

      2895  3.594778E-01  2.891432E-01 -1.051768E+01

 displacements (vx,vy,vz) for set SENSOR and time  0.9531250E-02

      2895  3.473007E-01  3.212864E-01 -1.086264E+01

 displacements (vx,vy,vz) for set SENSOR and time  0.9687500E-02

      2895  3.445525E-01  3.597099E-01 -1.094794E+01

 displacements (vx,vy,vz) for set SENSOR and time  0.9843750E-02

      2895  3.375226E-01  3.859921E-01 -1.053275E+01

 displacements (vx,vy,vz) for set SENSOR and time  0.1000000E-01

      2895  3.144633E-01  3.868176E-01 -9.551356E+00

 displacements (vx,vy,vz) for set SENSOR and time  0.1015625E-01

      2895  2.730851E-01  3.601201E-01 -8.206777E+00

 displacements (vx,vy,vz) for set SENSOR and time  0.1031250E-01

      2895  2.231474E-01  3.166960E-01 -6.919181E+00

 displacements (vx,vy,vz) for set SENSOR and time  0.1046875E-01

      2895  1.828809E-01  2.762907E-01 -6.151236E+00

 displacements (vx,vy,vz) for set SENSOR and time  0.1062500E-01

      2895  1.709862E-01  2.594599E-01 -6.197569E+00

 displacements (vx,vy,vz) for set SENSOR and time  0.1078125E-01

      2895  1.980635E-01  2.784693E-01 -7.044392E+00

 displacements (vx,vy,vz) for set SENSOR and time  0.1093750E-01

      2895  2.615457E-01  3.311716E-01 -8.369657E+00

 displacements (vx,vy,vz) for set SENSOR and time  0.1109375E-01

      2895  3.464679E-01  4.007654E-01 -9.682990E+00

 displacements (vx,vy,vz) for set SENSOR and time  0.1125000E-01

      2895  4.315933E-01  4.618986E-01 -1.053537E+01

 displacements (vx,vy,vz) for set SENSOR and time  0.1140625E-01

      2895  4.979156E-01  4.907549E-01 -1.069599E+01

 displacements (vx,vy,vz) for set SENSOR and time  0.1156250E-01

      2895  5.355763E-01  4.748511E-01 -1.021352E+01

 displacements (vx,vy,vz) for set SENSOR and time  0.1171875E-01

      2895  5.461863E-01  4.182323E-01 -9.340044E+00

 displacements (vx,vy,vz) for set SENSOR and time  0.1187500E-01

      2895  5.398969E-01  3.396978E-01 -8.365496E+00

 displacements (vx,vy,vz) for set SENSOR and time  0.1203125E-01

      2895  5.291030E-01  2.647929E-01 -7.454255E+00

 displacements (vx,vy,vz) for set SENSOR and time  0.1218750E-01

      2895  5.221396E-01  2.151286E-01 -6.570504E+00

 displacements (vx,vy,vz) for set SENSOR and time  0.1234375E-01

      2895  5.200498E-01  1.997990E-01 -5.530035E+00

 displacements (vx,vy,vz) for set SENSOR and time  0.1250000E-01

      2895  5.177103E-01  2.126558E-01 -4.148139E+00

 displacements (vx,vy,vz) for set SENSOR and time  0.1265625E-01

      2895  5.082714E-01  2.364462E-01 -2.401570E+00

 displacements (vx,vy,vz) for set SENSOR and time  0.1281250E-01

      2895  4.882268E-01  2.516318E-01 -5.134687E-01

 displacements (vx,vy,vz) for set SENSOR and time  0.1296875E-01

      2895  4.602833E-01  2.456157E-01  1.092009E+00

 displacements (vx,vy,vz) for set SENSOR and time  0.1312500E-01

      2895  4.325588E-01  2.180862E-01  1.952770E+00

 displacements (vx,vy,vz) for set SENSOR and time  0.1328125E-01

      2895  4.147010E-01  1.801915E-01  1.776225E+00

 displacements (vx,vy,vz) for set SENSOR and time  0.1343750E-01

      2895  4.131728E-01  1.482754E-01  5.923914E-01

 displacements (vx,vy,vz) for set SENSOR and time  0.1359375E-01

      2895  4.283050E-01  1.354302E-01 -1.223375E+00

 displacements (vx,vy,vz) for set SENSOR and time  0.1375000E-01

      2895  4.546374E-01  1.449819E-01 -3.074209E+00

 displacements (vx,vy,vz) for set SENSOR and time  0.1390625E-01

      2895  4.841899E-01  1.688794E-01 -4.360243E+00

 displacements (vx,vy,vz) for set SENSOR and time  0.1406250E-01

      2895  5.106773E-01  1.914798E-01 -4.696294E+00

 displacements (vx,vy,vz) for set SENSOR and time  0.1421875E-01

      2895  5.322252E-01  1.966721E-01 -4.034486E+00

 displacements (vx,vy,vz) for set SENSOR and time  0.1437500E-01

      2895  5.510780E-01  1.748886E-01 -2.642578E+00

 displacements (vx,vy,vz) for set SENSOR and time  0.1453125E-01

      2895  5.706014E-01  1.268844E-01 -9.554074E-01

 displacements (vx,vy,vz) for set SENSOR and time  0.1468750E-01

      2895  5.915172E-01  6.290759E-02  6.265628E-01

 displacements (vx,vy,vz) for set SENSOR and time  0.1484375E-01

      2895  6.098418E-01 -1.916884E-03  1.897440E+00

 displacements (vx,vy,vz) for set SENSOR and time  0.1500000E-01

      2895  6.180798E-01 -5.360371E-02  2.895162E+00

 displacements (vx,vy,vz) for set SENSOR and time  0.1515625E-01

      2895  6.093345E-01 -8.405723E-02  3.826227E+00

 displacements (vx,vy,vz) for set SENSOR and time  0.1531250E-01

      2895  5.821792E-01 -9.285168E-02  4.912376E+00

 displacements (vx,vy,vz) for set SENSOR and time  0.1546875E-01

      2895  5.434178E-01 -8.590173E-02  6.241040E+00

 displacements (vx,vy,vz) for set SENSOR and time  0.1562500E-01

      2895  5.067455E-01 -7.221555E-02  7.696039E+00

 displacements (vx,vy,vz) for set SENSOR and time  0.1578125E-01

      2895  4.873942E-01 -6.044139E-02  9.002792E+00

 displacements (vx,vy,vz) for set SENSOR and time  0.1593750E-01

      2895  4.950652E-01 -5.655044E-02  9.864652E+00

 displacements (vx,vy,vz) for set SENSOR and time  0.1609375E-01

      2895  5.286179E-01 -6.312733E-02  1.012196E+01

 displacements (vx,vy,vz) for set SENSOR and time  0.1625000E-01

      2895  5.753994E-01 -7.992018E-02  9.854405E+00

 displacements (vx,vy,vz) for set SENSOR and time  0.1640625E-01

      2895  6.159797E-01 -1.049313E-01  9.374768E+00

 displacements (vx,vy,vz) for set SENSOR and time  0.1656250E-01

      2895  6.324069E-01 -1.354541E-01  9.114136E+00

 displacements (vx,vy,vz) for set SENSOR and time  0.1671875E-01

      2895  6.162543E-01 -1.688312E-01  9.449887E+00

 displacements (vx,vy,vz) for set SENSOR and time  0.1687500E-01

      2895  5.726614E-01 -2.029945E-01  1.055384E+01

 displacements (vx,vy,vz) for set SENSOR and time  0.1703125E-01

      2895  5.183632E-01 -2.368608E-01  1.232740E+01

 displacements (vx,vy,vz) for set SENSOR and time  0.1718750E-01

      2895  4.745173E-01 -2.704887E-01  1.444909E+01

 displacements (vx,vy,vz) for set SENSOR and time  0.1734375E-01

      2895  4.576104E-01 -3.047668E-01  1.650842E+01

 displacements (vx,vy,vz) for set SENSOR and time  0.1750000E-01

      2895  4.726331E-01 -3.405286E-01  1.816284E+01

 displacements (vx,vy,vz) for set SENSOR and time  0.1765625E-01

      2895  5.116135E-01 -3.773475E-01  1.924834E+01

 displacements (vx,vy,vz) for set SENSOR and time  0.1781250E-01

      2895  5.580326E-01 -4.126401E-01  1.980095E+01

 displacements (vx,vy,vz) for set SENSOR and time  0.1796875E-01

      2895  5.948564E-01 -4.417857E-01  1.999104E+01

 displacements (vx,vy,vz) for set SENSOR and time  0.1812500E-01

      2895  6.122742E-01 -4.595828E-01  2.001298E+01

 displacements (vx,vy,vz) for set SENSOR and time  0.1828125E-01

      2895  6.114890E-01 -4.626490E-01  1.998973E+01

 displacements (vx,vy,vz) for set SENSOR and time  0.1843750E-01

      2895  6.029166E-01 -4.517000E-01  1.993856E+01

 displacements (vx,vy,vz) for set SENSOR and time  0.1859375E-01

      2895  5.998921E-01 -4.324484E-01  1.980854E+01

 displacements (vx,vy,vz) for set SENSOR and time  0.1875000E-01

      2895  6.111194E-01 -4.143560E-01  1.956141E+01

 displacements (vx,vy,vz) for set SENSOR and time  0.1890625E-01

      2895  6.356159E-01 -4.074713E-01  1.924555E+01

 displacements (vx,vy,vz) for set SENSOR and time  0.1906250E-01

      2895  6.626097E-01 -4.186066E-01  1.901774E+01

 displacements (vx,vy,vz) for set SENSOR and time  0.1921875E-01

      2895  6.763996E-01 -4.485848E-01  1.909676E+01

 displacements (vx,vy,vz) for set SENSOR and time  0.1937500E-01

      2895  6.638229E-01 -4.919057E-01  1.966980E+01

 displacements (vx,vy,vz) for set SENSOR and time  0.1953125E-01

      2895  6.207872E-01 -5.390839E-01  2.079924E+01

 displacements (vx,vy,vz) for set SENSOR and time  0.1968750E-01

      2895  5.548454E-01 -5.806204E-01  2.237795E+01

 displacements (vx,vy,vz) for set SENSOR and time  0.1984375E-01

      2895  4.826990E-01 -6.107605E-01  2.415795E+01

 displacements (vx,vy,vz) for set SENSOR and time  0.2000000E-01

      2895  4.238495E-01 -6.292920E-01  2.584040E+01

 displacements (vx,vy,vz) for set SENSOR and time  0.2015625E-01

      2895  3.932784E-01 -6.406233E-01  2.718460E+01

 displacements (vx,vy,vz) for set SENSOR and time  0.2031250E-01

      2895  3.962998E-01 -6.507424E-01  2.808506E+01

 displacements (vx,vy,vz) for set SENSOR and time  0.2046875E-01

      2895  4.275619E-01 -6.637013E-01  2.858305E+01

 displacements (vx,vy,vz) for set SENSOR and time  0.2062500E-01

      2895  4.742243E-01 -6.794555E-01  2.881280E+01

 displacements (vx,vy,vz) for set SENSOR and time  0.2078125E-01

      2895  5.215471E-01 -6.941243E-01  2.891561E+01

 displacements (vx,vy,vz) for set SENSOR and time  0.2093750E-01

      2895  5.582945E-01 -7.024483E-01  2.896935E+01

 displacements (vx,vy,vz) for set SENSOR and time  0.2109375E-01

      2895  5.797664E-01 -7.010724E-01  2.897023E+01

 displacements (vx,vy,vz) for set SENSOR and time  0.2125000E-01

      2895  5.876013E-01 -6.908798E-01  2.887291E+01

 displacements (vx,vy,vz) for set SENSOR and time  0.2140625E-01

      2895  5.870322E-01 -6.771335E-01  2.866182E+01

 displacements (vx,vy,vz) for set SENSOR and time  0.2156250E-01

      2895  5.832971E-01 -6.673378E-01  2.840786E+01

 displacements (vx,vy,vz) for set SENSOR and time  0.2171875E-01

      2895  5.789958E-01 -6.679114E-01  2.827167E+01

 displacements (vx,vy,vz) for set SENSOR and time  0.2187500E-01

      2895  5.734371E-01 -6.813394E-01  2.844335E+01

 displacements (vx,vy,vz) for set SENSOR and time  0.2203125E-01

      2895  5.638912E-01 -7.051843E-01  2.904511E+01

 displacements (vx,vy,vz) for set SENSOR and time  0.2218750E-01

      2895  5.477617E-01 -7.333633E-01  3.004654E+01

 displacements (vx,vy,vz) for set SENSOR and time  0.2234375E-01

      2895  5.244064E-01 -7.589656E-01  3.124091E+01

 displacements (vx,vy,vz) for set SENSOR and time  0.2250000E-01

      2895  4.957370E-01 -7.771756E-01  3.230296E+01

 displacements (vx,vy,vz) for set SENSOR and time  0.2265625E-01

      2895  4.654943E-01 -7.869137E-01  3.290850E+01

 displacements (vx,vy,vz) for set SENSOR and time  0.2281250E-01

      2895  4.378021E-01 -7.905375E-01  3.286364E+01

 displacements (vx,vy,vz) for set SENSOR and time  0.2296875E-01

      2895  4.158705E-01 -7.919446E-01  3.218381E+01

 displacements (vx,vy,vz) for set SENSOR and time  0.2312500E-01

      2895  4.014743E-01 -7.941733E-01  3.108483E+01

 displacements (vx,vy,vz) for set SENSOR and time  0.2328125E-01

      2895  3.952652E-01 -7.977433E-01  2.988926E+01

 displacements (vx,vy,vz) for set SENSOR and time  0.2343750E-01

      2895  3.974485E-01 -8.005059E-01  2.889211E+01

 displacements (vx,vy,vz) for set SENSOR and time  0.2359375E-01

      2895  4.081724E-01 -7.989568E-01  2.824863E+01

 displacements (vx,vy,vz) for set SENSOR and time  0.2375000E-01

      2895  4.272318E-01 -7.902493E-01  2.793569E+01

 displacements (vx,vy,vz) for set SENSOR and time  0.2390625E-01

      2895  4.532112E-01 -7.738632E-01  2.780103E+01

 displacements (vx,vy,vz) for set SENSOR and time  0.2406250E-01

      2895  4.826688E-01 -7.521300E-01  2.767095E+01

 displacements (vx,vy,vz) for set SENSOR and time  0.2421875E-01

      2895  5.100853E-01 -7.294166E-01  2.745830E+01

 displacements (vx,vy,vz) for set SENSOR and time  0.2437500E-01

      2895  5.289743E-01 -7.104045E-01  2.721410E+01

 displacements (vx,vy,vz) for set SENSOR and time  0.2453125E-01

      2895  5.339238E-01 -6.982760E-01  2.709563E+01

 displacements (vx,vy,vz) for set SENSOR and time  0.2468750E-01

      2895  5.227423E-01 -6.935888E-01  2.726804E+01

 displacements (vx,vy,vz) for set SENSOR and time  0.2484375E-01

      2895  4.976620E-01 -6.942627E-01  2.779187E+01

 displacements (vx,vy,vz) for set SENSOR and time  0.2500000E-01

      2895  4.648659E-01 -6.966054E-01  2.855701E+01

 displacements (vx,vy,vz) for set SENSOR and time  0.2515625E-01

      2895  4.323423E-01 -6.968947E-01  2.930157E+01

 displacements (vx,vy,vz) for set SENSOR and time  0.2531250E-01

      2895  4.068856E-01 -6.928644E-01  2.971118E+01

 displacements (vx,vy,vz) for set SENSOR and time  0.2546875E-01

      2895  3.915472E-01 -6.845268E-01  2.955311E+01

 displacements (vx,vy,vz) for set SENSOR and time  0.2562500E-01

      2895  3.847189E-01 -6.740463E-01  2.878114E+01

 displacements (vx,vy,vz) for set SENSOR and time  0.2578125E-01

      2895  3.813223E-01 -6.647366E-01  2.755968E+01

 displacements (vx,vy,vz) for set SENSOR and time  0.2593750E-01

      2895  3.755963E-01 -6.595643E-01  2.619471E+01

 displacements (vx,vy,vz) for set SENSOR and time  0.2609375E-01

      2895  3.641806E-01 -6.597277E-01  2.500394E+01

 displacements (vx,vy,vz) for set SENSOR and time  0.2625000E-01

      2895  3.479961E-01 -6.638714E-01  2.418730E+01

 displacements (vx,vy,vz) for set SENSOR and time  0.2640625E-01

      2895  3.319458E-01 -6.683026E-01  2.375802E+01

 displacements (vx,vy,vz) for set SENSOR and time  0.2656250E-01

      2895  3.224876E-01 -6.682139E-01  2.356345E+01

 displacements (vx,vy,vz) for set SENSOR and time  0.2671875E-01

      2895  3.241844E-01 -6.595183E-01  2.338095E+01

 displacements (vx,vy,vz) for set SENSOR and time  0.2687500E-01

      2895  3.369046E-01 -6.405987E-01  2.303768E+01

 displacements (vx,vy,vz) for set SENSOR and time  0.2703125E-01

      2895  3.551261E-01 -6.132249E-01  2.249409E+01

 displacements (vx,vy,vz) for set SENSOR and time  0.2718750E-01

      2895  3.698560E-01 -5.821630E-01  2.185077E+01

 displacements (vx,vy,vz) for set SENSOR and time  0.2734375E-01

      2895  3.724393E-01 -5.535198E-01  2.127908E+01

 displacements (vx,vy,vz) for set SENSOR and time  0.2750000E-01

      2895  3.585692E-01 -5.324370E-01  2.091451E+01

 displacements (vx,vy,vz) for set SENSOR and time  0.2765625E-01

      2895  3.306163E-01 -5.210978E-01  2.077023E+01

 displacements (vx,vy,vz) for set SENSOR and time  0.2781250E-01

      2895  2.970723E-01 -5.179460E-01  2.071671E+01

 displacements (vx,vy,vz) for set SENSOR and time  0.2796875E-01

      2895  2.691898E-01 -5.185136E-01  2.053886E+01

 displacements (vx,vy,vz) for set SENSOR and time  0.2812500E-01

      2895  2.561915E-01 -5.175278E-01  2.004198E+01

 displacements (vx,vy,vz) for set SENSOR and time  0.2828125E-01

      2895  2.611310E-01 -5.113427E-01  1.915275E+01

 displacements (vx,vy,vz) for set SENSOR and time  0.2843750E-01

      2895  2.792594E-01 -4.995456E-01  1.796397E+01

 displacements (vx,vy,vz) for set SENSOR and time  0.2859375E-01

      2895  2.996795E-01 -4.849520E-01  1.670021E+01

 displacements (vx,vy,vz) for set SENSOR and time  0.2875000E-01

      2895  3.096302E-01 -4.719687E-01  1.562082E+01

 displacements (vx,vy,vz) for set SENSOR and time  0.2890625E-01

      2895  2.995913E-01 -4.641169E-01  1.490795E+01

 displacements (vx,vy,vz) for set SENSOR and time  0.2906250E-01

      2895  2.670586E-01 -4.619519E-01  1.459358E+01

 displacements (vx,vy,vz) for set SENSOR and time  0.2921875E-01

      2895  2.174476E-01 -4.624557E-01  1.455924E+01

 displacements (vx,vy,vz) for set SENSOR and time  0.2937500E-01

      2895  1.618580E-01 -4.602667E-01  1.460560E+01

 displacements (vx,vy,vz) for set SENSOR and time  0.2953125E-01

      2895  1.127711E-01 -4.502030E-01  1.455444E+01

 displacements (vx,vy,vz) for set SENSOR and time  0.2968750E-01

      2895  7.956647E-02 -4.298701E-01  1.433111E+01

 displacements (vx,vy,vz) for set SENSOR and time  0.2984375E-01

      2895  6.568110E-02 -4.010775E-01  1.398722E+01

 displacements (vx,vy,vz) for set SENSOR and time  0.3000000E-01

      2895  6.838262E-02 -3.693507E-01  1.365499E+01

 displacements (vx,vy,vz) for set SENSOR and time  0.3015625E-01

      2895  8.091801E-02 -3.417451E-01  1.345994E+01

 displacements (vx,vy,vz) for set SENSOR and time  0.3031250E-01

      2895  9.580559E-02 -3.239828E-01  1.343924E+01

 displacements (vx,vy,vz) for set SENSOR and time  0.3046875E-01

      2895  1.076972E-01 -3.182404E-01  1.350940E+01

 displacements (vx,vy,vz) for set SENSOR and time  0.3062500E-01

      2895  1.146470E-01 -3.225714E-01  1.350060E+01

 displacements (vx,vy,vz) for set SENSOR and time  0.3078125E-01

      2895  1.175195E-01 -3.321343E-01  1.324073E+01

 displacements (vx,vy,vz) for set SENSOR and time  0.3093750E-01

      2895  1.181826E-01 -3.415364E-01  1.264629E+01

 displacements (vx,vy,vz) for set SENSOR and time  0.3109375E-01

      2895  1.176197E-01 -3.471234E-01  1.177394E+01

 displacements (vx,vy,vz) for set SENSOR and time  0.3125000E-01

      2895  1.149718E-01 -3.481576E-01  1.080602E+01

 displacements (vx,vy,vz) for set SENSOR and time  0.3140625E-01

      2895  1.079067E-01 -3.464511E-01  9.976426E+00

 displacements (vx,vy,vz) for set SENSOR and time  0.3156250E-01

      2895  9.397110E-02 -3.448121E-01  9.472252E+00

 displacements (vx,vy,vz) for set SENSOR and time  0.3171875E-01

      2895  7.210011E-02 -3.452123E-01  9.358189E+00

 displacements (vx,vy,vz) for set SENSOR and time  0.3187500E-01

      2895  4.345379E-02 -3.476364E-01  9.558382E+00

 displacements (vx,vy,vz) for set SENSOR and time  0.3203125E-01

      2895  1.118501E-02 -3.501431E-01  9.901848E+00

 displacements (vx,vy,vz) for set SENSOR and time  0.3218750E-01

      2895 -2.066453E-02 -3.500013E-01  1.020674E+01

 displacements (vx,vy,vz) for set SENSOR and time  0.3234375E-01

      2895 -4.851319E-02 -3.452321E-01  1.036123E+01

 displacements (vx,vy,vz) for set SENSOR and time  0.3250000E-01

      2895 -7.015796E-02 -3.357330E-01  1.036265E+01

 displacements (vx,vy,vz) for set SENSOR and time  0.3265625E-01

      2895 -8.490888E-02 -3.234448E-01  1.029926E+01

 displacements (vx,vy,vz) for set SENSOR and time  0.3281250E-01

      2895 -9.306469E-02 -3.115389E-01  1.028813E+01

 displacements (vx,vy,vz) for set SENSOR and time  0.3296875E-01

      2895 -9.520780E-02 -3.030921E-01  1.040395E+01

 displacements (vx,vy,vz) for set SENSOR and time  0.3312500E-01

      2895 -9.182889E-02 -2.999062E-01  1.063611E+01

 displacements (vx,vy,vz) for set SENSOR and time  0.3328125E-01

      2895 -8.350476E-02 -3.019845E-01  1.089505E+01

 displacements (vx,vy,vz) for set SENSOR and time  0.3343750E-01

      2895 -7.143527E-02 -3.077953E-01  1.106265E+01

 displacements (vx,vy,vz) for set SENSOR and time  0.3359375E-01

      2895 -5.785863E-02 -3.150670E-01  1.105847E+01

 displacements (vx,vy,vz) for set SENSOR and time  0.3375000E-01

      2895 -4.589028E-02 -3.216668E-01  1.088644E+01

 displacements (vx,vy,vz) for set SENSOR and time  0.3390625E-01

      2895 -3.866624E-02 -3.261736E-01  1.063744E+01

 displacements (vx,vy,vz) for set SENSOR and time  0.3406250E-01

      2895 -3.812602E-02 -3.280009E-01  1.044635E+01

 displacements (vx,vy,vz) for set SENSOR and time  0.3421875E-01

      2895 -4.407424E-02 -3.271802E-01  1.042568E+01

 displacements (vx,vy,vz) for set SENSOR and time  0.3437500E-01

      2895 -5.411533E-02 -3.240490E-01  1.060940E+01

 displacements (vx,vy,vz) for set SENSOR and time  0.3453125E-01

      2895 -6.465386E-02 -3.190507E-01  1.093480E+01

 displacements (vx,vy,vz) for set SENSOR and time  0.3468750E-01

      2895 -7.258994E-02 -3.127032E-01  1.127073E+01

 displacements (vx,vy,vz) for set SENSOR and time  0.3484375E-01

      2895 -7.691323E-02 -3.056532E-01  1.147734E+01

 displacements (vx,vy,vz) for set SENSOR and time  0.3500000E-01

      2895 -7.935844E-02 -2.986885E-01  1.146769E+01

 displacements (vx,vy,vz) for set SENSOR and time  0.3515625E-01

      2895 -8.368378E-02 -2.926440E-01  1.124173E+01

 displacements (vx,vy,vz) for set SENSOR and time  0.3531250E-01

      2895 -9.379885E-02 -2.882436E-01  1.087862E+01

 displacements (vx,vy,vz) for set SENSOR and time  0.3546875E-01

      2895 -1.115732E-01 -2.859843E-01  1.049425E+01

 displacements (vx,vy,vz) for set SENSOR and time  0.3562500E-01

      2895 -1.353898E-01 -2.861356E-01  1.018753E+01

 displacements (vx,vy,vz) for set SENSOR and time  0.3578125E-01

      2895 -1.602268E-01 -2.888272E-01  1.000283E+01

 displacements (vx,vy,vz) for set SENSOR and time  0.3593750E-01

      2895 -1.793679E-01 -2.941094E-01  9.925104E+00

 displacements (vx,vy,vz) for set SENSOR and time  0.3609375E-01

      2895 -1.870712E-01 -3.018688E-01  9.906305E+00

 displacements (vx,vy,vz) for set SENSOR and time  0.3625000E-01

      2895 -1.810357E-01 -3.115877E-01  9.904863E+00

 displacements (vx,vy,vz) for set SENSOR and time  0.3640625E-01

      2895 -1.635454E-01 -3.220822E-01  9.914493E+00

 displacements (vx,vy,vz) for set SENSOR and time  0.3656250E-01

      2895 -1.407280E-01 -3.314452E-01  9.965809E+00

 displacements (vx,vy,vz) for set SENSOR and time  0.3671875E-01

      2895 -1.202062E-01 -3.373673E-01  1.010052E+01

 displacements (vx,vy,vz) for set SENSOR and time  0.3687500E-01

      2895 -1.081377E-01 -3.378213E-01  1.033396E+01

 displacements (vx,vy,vz) for set SENSOR and time  0.3703125E-01

      2895 -1.069223E-01 -3.318647E-01  1.062881E+01

 displacements (vx,vy,vz) for set SENSOR and time  0.3718750E-01

      2895 -1.145547E-01 -3.201812E-01  1.089727E+01

 displacements (vx,vy,vz) for set SENSOR and time  0.3734375E-01

      2895 -1.258661E-01 -3.050374E-01  1.103367E+01

 displacements (vx,vy,vz) for set SENSOR and time  0.3750000E-01

      2895 -1.350601E-01 -2.895847E-01  1.096248E+01

 displacements (vx,vy,vz) for set SENSOR and time  0.3765625E-01

      2895 -1.383928E-01 -2.767552E-01  1.067762E+01

 displacements (vx,vy,vz) for set SENSOR and time  0.3781250E-01

      2895 -1.358103E-01 -2.682299E-01  1.025188E+01

 displacements (vx,vy,vz) for set SENSOR and time  0.3796875E-01

      2895 -1.308578E-01 -2.639526E-01  9.810103E+00

 displacements (vx,vy,vz) for set SENSOR and time  0.3812500E-01

      2895 -1.289592E-01 -2.624160E-01  9.477327E+00

 displacements (vx,vy,vz) for set SENSOR and time  0.3828125E-01

      2895 -1.348873E-01 -2.615701E-01  9.326194E+00

 displacements (vx,vy,vz) for set SENSOR and time  0.3843750E-01

      2895 -1.505727E-01 -2.598884E-01  9.348302E+00

 displacements (vx,vy,vz) for set SENSOR and time  0.3859375E-01

      2895 -1.742047E-01 -2.570473E-01  9.462475E+00

 displacements (vx,vy,vz) for set SENSOR and time  0.3875000E-01

      2895 -2.009678E-01 -2.538713E-01  9.554824E+00

 displacements (vx,vy,vz) for set SENSOR and time  0.3890625E-01

      2895 -2.250168E-01 -2.515796E-01  9.530082E+00

 displacements (vx,vy,vz) for set SENSOR and time  0.3906250E-01

      2895 -2.417707E-01 -2.507412E-01  9.348848E+00