
 displacements (vx,vy,vz) for set SENSOR and time  0.1562500E-03

      2895  3.908038E-03  5.332474E-03  8.572451E-02

 displacements (vx,vy,vz) for set SENSOR and time  0.3125000E-03

      2895  1.974658E-02  2.895206E-02  4.712725E-01

 displacements (vx,vy,vz) for set SENSOR and time  0.4687500E-03

      2895  2.324111E-02  4.457416E-02  7.478831E-01

 displacements (vx,vy,vz) for set SENSOR and time  0.6250000E-03

      2895  2.223198E-03  3.996657E-02  7.013389E-01

 displacements (vx,vy,vz) for set SENSOR and time  0.7812500E-03

      2895 -3.989712E-02  1.721742E-02  2.974407E-01

 displacements (vx,vy,vz) for set SENSOR and time  0.9375000E-03

      2895 -8.872446E-02 -1.369859E-02 -4.015937E-01

 displacements (vx,vy,vz) for set SENSOR and time  0.1093750E-02

      2895 -1.239785E-01 -3.935637E-02 -1.261631E+00

 displacements (vx,vy,vz) for set SENSOR and time  0.1250000E-02

      2895 -1.271714E-01 -4.863454E-02 -2.115202E+00

 displacements (vx,vy,vz) for set SENSOR and time  0.1406250E-02

      2895 -8.896323E-02 -3.719233E-02 -2.798774E+00

 displacements (vx,vy,vz) for set SENSOR and time  0.1562500E-02

      2895 -1.335317E-02 -8.738149E-03 -3.178784E+00

 displacements (vx,vy,vz) for set SENSOR and time  0.1718750E-02

      2895  8.300049E-02  2.729151E-02 -3.165380E+00

 displacements (vx,vy,vz) for set SENSOR and time  0.1875000E-02

      2895  1.762218E-01  6.032023E-02 -2.719452E+00

 displacements (vx,vy,vz) for set SENSOR and time  0.2031250E-02

      2895  2.434842E-01  8.312611E-02 -1.859084E+00

 displacements (vx,vy,vz) for set SENSOR and time  0.2187500E-02

      2895  2.710319E-01  9.402449E-02 -6.662685E-01

 displacements (vx,vy,vz) for set SENSOR and time  0.2343750E-02

      2895  2.589062E-01  9.578909E-02  7.123123E-01

 displacements (vx,vy,vz) for set SENSOR and time  0.2500000E-02

      2895  2.205268E-01  9.212944E-02  2.079824E+00

 displacements (vx,vy,vz) for set SENSOR and time  0.2656250E-02

      2895  1.772327E-01  8.389998E-02  3.224697E+00

 displacements (vx,vy,vz) for set SENSOR and time  0.2812500E-02

      2895  1.498371E-01  6.742653E-02  3.972401E+00

 displacements (vx,vy,vz) for set SENSOR and time  0.2968750E-02

      2895  1.504423E-01  3.622458E-02  4.238035E+00

 displacements (vx,vy,vz) for set SENSOR and time  0.3125000E-02

      2895  1.776992E-01 -1.452473E-02  4.058666E+00

 displacements (vx,vy,vz) for set SENSOR and time  0.3281250E-02

      2895  2.174009E-01 -8.309097E-02  3.588713E+00

 displacements (vx,vy,vz) for set SENSOR and time  0.3437500E-02

      2895  2.482418E-01 -1.588167E-01  3.055200E+00

 displacements (vx,vy,vz) for set SENSOR and time  0.3593750E-02

      2895  2.505779E-01 -2.241556E-01  2.686562E+00

 displacements (vx,vy,vz) for set SENSOR and time  0.3750000E-02

      2895  2.148354E-01 -2.608654E-01  2.640977E+00

 displacements (vx,vy,vz) for set SENSOR and time  0.3906250E-02

      2895  1.463197E-01 -2.578226E-01  2.961336E+00

 displacements (vx,vy,vz) for set SENSOR and time  0.4062500E-02

      2895  6.450688E-02 -2.167531E-01  3.573149E+00

 displacements (vx,vy,vz) for set SENSOR and time  0.4218750E-02

      2895 -3.042021E-03 -1.528293E-01  4.323444E+00

 displacements (vx,vy,vz) for set SENSOR and time  0.4375000E-02

      2895 -3.000568E-02 -8.936383E-02  5.041844E+00

 displacements (vx,vy,vz) for set SENSOR and time  0.4531250E-02

      2895 -5.350242E-04 -4.868166E-02  5.597243E+00

 displacements (vx,vy,vz) for set SENSOR and time  0.4687500E-02

      2895  8.490707E-02 -4.324033E-02  5.928355E+00

 displacements (vx,vy,vz) for set SENSOR and time  0.4843750E-02

      2895  2.091734E-01 -7.112284E-02  6.040916E+00

 displacements (vx,vy,vz) for set SENSOR and time  0.5000000E-02

      2895  3.436506E-01 -1.180316E-01  5.980931E+00

 displacements (vx,vy,vz) for set SENSOR and time  0.5156250E-02

      2895  4.572294E-01 -1.647899E-01  5.803693E+00

 displacements (vx,vy,vz) for set SENSOR and time  0.5312500E-02

      2895  5.259082E-01 -1.966609E-01  5.557380E+00

 displacements (vx,vy,vz) for set SENSOR and time  0.5468750E-02

      2895  5.397613E-01 -2.099041E-01  5.289023E+00

 displacements (vx,vy,vz) for set SENSOR and time  0.5625000E-02

      2895  5.049987E-01 -2.123985E-01  5.065655E+00

 displacements (vx,vy,vz) for set SENSOR and time  0.5781250E-02

      2895  4.406223E-01 -2.181897E-01  4.992856E+00

 displacements (vx,vy,vz) for set SENSOR and time  0.5937500E-02

      2895  3.710966E-01 -2.389324E-01  5.212427E+00

 displacements (vx,vy,vz) for set SENSOR and time  0.6093750E-02

      2895  3.178099E-01 -2.767969E-01  5.871108E+00

 displacements (vx,vy,vz) for set SENSOR and time  0.6250000E-02

      2895  2.924299E-01 -3.226476E-01  7.068033E+00

 displacements (vx,vy,vz) for set SENSOR and time  0.6406250E-02

      2895  2.944329E-01 -3.605468E-01  8.801862E+00

 displacements (vx,vy,vz) for set SENSOR and time  0.6562500E-02

      2895  3.134353E-01 -3.763061E-01  1.094261E+01

 displacements (vx,vy,vz) for set SENSOR and time  0.6718750E-02

      2895  3.350949E-01 -3.656176E-01  1.324538E+01

 displacements (vx,vy,vz) for set SENSOR and time  0.6875000E-02

      2895  3.480048E-01 -3.374102E-01  1.540718E+01

 displacements (vx,vy,vz) for set SENSOR and time  0.7031250E-02

      2895  3.486970E-01 -3.104559E-01  1.715017E+01

 displacements (vx,vy,vz) for set SENSOR and time  0.7187500E-02

      2895  3.427369E-01 -3.046943E-01  1.830378E+01

 displacements (vx,vy,vz) for set SENSOR and time  0.7343750E-02

      2895  3.415802E-01 -3.314956E-01  1.885738E+01

 displacements (vx,vy,vz) for set SENSOR and time  0.7500000E-02

      2895  3.566796E-01 -3.877203E-01  1.896547E+01

 displacements (vx,vy,vz) for set SENSOR and time  0.7656250E-02

      2895  3.935179E-01 -4.566238E-01  1.890383E+01

 displacements (vx,vy,vz) for set SENSOR and time  0.7812500E-02

      2895  4.482802E-01 -5.153059E-01  1.899073E+01

 displacements (vx,vy,vz) for set SENSOR and time  0.7968750E-02

      2895  5.087304E-01 -5.451960E-01  1.949763E+01

 displacements (vx,vy,vz) for set SENSOR and time  0.8125000E-02

      2895  5.590081E-01 -5.405920E-01  2.057506E+01

 displacements (vx,vy,vz) for set SENSOR and time  0.8281250E-02

      2895  5.863060E-01 -5.112457E-01  2.221332E+01

 displacements (vx,vy,vz) for set SENSOR and time  0.8437500E-02

      2895  5.865039E-01 -4.778746E-01  2.424648E+01

 displacements (vx,vy,vz) for set SENSOR and time  0.8593750E-02

      2895  5.662247E-01 -4.628346E-01  2.639636E+01

 displacements (vx,vy,vz) for set SENSOR and time  0.8750000E-02

      2895  5.402974E-01 -4.803584E-01  2.834329E+01

 displacements (vx,vy,vz) for set SENSOR and time  0.8906250E-02

      2895  5.255937E-01 -5.307657E-01  2.980441E+01

 displacements (vx,vy,vz) for set SENSOR and time  0.9062500E-02

      2895  5.337971E-01 -6.009844E-01  3.059953E+01

 displacements (vx,vy,vz) for set SENSOR and time  0.9218750E-02

      2895  5.661537E-01 -6.706995E-01  3.068796E+01

 displacements (vx,vy,vz) for set SENSOR and time  0.9375000E-02

      2895  6.124454E-01 -7.209650E-01  3.016816E+01

 displacements (vx,vy,vz) for set SENSOR and time  0.9531250E-02

      2895  6.546616E-01 -7.413178E-01  2.924249E+01

 displacements (vx,vy,vz) for set SENSOR and time  0.9687500E-02

      2895  6.739106E-01 -7.325374E-01  2.815964E+01

 displacements (vx,vy,vz) for set SENSOR and time  0.9843750E-02

      2895  6.578165E-01 -7.045048E-01  2.715420E+01

 displacements (vx,vy,vz) for set SENSOR and time  0.1000000E-01

      2895  6.055184E-01 -6.708849E-01  2.640241E+01

 displacements (vx,vy,vz) for set SENSOR and time  0.1015625E-01

      2895  5.284277E-01 -6.435124E-01  2.600593E+01

 displacements (vx,vy,vz) for set SENSOR and time  0.1031250E-01

      2895  4.466050E-01 -6.289828E-01  2.600306E+01

 displacements (vx,vy,vz) for set SENSOR and time  0.1046875E-01

      2895  3.822680E-01 -6.284236E-01  2.639468E+01

 displacements (vx,vy,vz) for set SENSOR and time  0.1062500E-01

      2895  3.528689E-01 -6.396772E-01  2.716637E+01

 displacements (vx,vy,vz) for set SENSOR and time  0.1078125E-01

      2895  3.661091E-01 -6.600726E-01  2.829134E+01

 displacements (vx,vy,vz) for set SENSOR and time  0.1093750E-01

      2895  4.183300E-01 -6.880503E-01  2.971117E+01

 displacements (vx,vy,vz) for set SENSOR and time  0.1109375E-01

      2895  4.964029E-01 -7.229189E-01  3.130623E+01

 displacements (vx,vy,vz) for set SENSOR and time  0.1125000E-01

      2895  5.820934E-01 -7.632938E-01  3.287807E+01

 displacements (vx,vy,vz) for set SENSOR and time  0.1140625E-01

      2895  6.572736E-01 -8.055509E-01  3.416510E+01

 displacements (vx,vy,vz) for set SENSOR and time  0.1156250E-01

      2895  7.083988E-01 -8.435459E-01  3.489921E+01

 displacements (vx,vy,vz) for set SENSOR and time  0.1171875E-01

      2895  7.291764E-01 -8.700254E-01  3.489079E+01

 displacements (vx,vy,vz) for set SENSOR and time  0.1187500E-01

      2895  7.210484E-01 -8.791225E-01  3.411107E+01

 displacements (vx,vy,vz) for set SENSOR and time  0.1203125E-01

      2895  6.917120E-01 -8.686935E-01  3.273489E+01

 displacements (vx,vy,vz) for set SENSOR and time  0.1218750E-01

      2895  6.523024E-01 -8.413354E-01  3.111771E+01

 displacements (vx,vy,vz) for set SENSOR and time  0.1234375E-01

      2895  6.140432E-01 -8.036366E-01  2.970565E+01

 displacements (vx,vy,vz) for set SENSOR and time  0.1250000E-01

      2895  5.852050E-01 -7.641080E-01  2.890500E+01

 displacements (vx,vy,vz) for set SENSOR and time  0.1265625E-01

      2895  5.691223E-01 -7.308241E-01  2.895718E+01

 displacements (vx,vy,vz) for set SENSOR and time  0.1281250E-01

      2895  5.637903E-01 -7.097690E-01  2.986542E+01

 displacements (vx,vy,vz) for set SENSOR and time  0.1296875E-01

      2895  5.631769E-01 -7.043253E-01  3.140051E+01

 displacements (vx,vy,vz) for set SENSOR and time  0.1312500E-01

      2895  5.598725E-01 -7.156222E-01  3.318205E+01

 displacements (vx,vy,vz) for set SENSOR and time  0.1328125E-01

      2895  5.482075E-01 -7.430246E-01  3.480259E+01

 displacements (vx,vy,vz) for set SENSOR and time  0.1343750E-01

      2895  5.267122E-01 -7.841299E-01  3.594706E+01

 displacements (vx,vy,vz) for set SENSOR and time  0.1359375E-01

      2895  4.989417E-01 -8.341837E-01  3.646531E+01

 displacements (vx,vy,vz) for set SENSOR and time  0.1375000E-01

      2895  4.722688E-01 -8.854650E-01  3.637829E+01

 displacements (vx,vy,vz) for set SENSOR and time  0.1390625E-01

      2895  4.550672E-01 -9.275164E-01  3.582706E+01

 displacements (vx,vy,vz) for set SENSOR and time  0.1406250E-01

      2895  4.534243E-01 -9.488661E-01  3.499551E+01

 displacements (vx,vy,vz) for set SENSOR and time  0.1421875E-01

      2895  4.687833E-01 -9.401592E-01  3.404317E+01

 displacements (vx,vy,vz) for set SENSOR and time  0.1437500E-01

      2895  4.975540E-01 -8.977548E-01  3.307328E+01

 displacements (vx,vy,vz) for set SENSOR and time  0.1453125E-01

      2895  5.328692E-01 -8.263055E-01  3.213991E+01

 displacements (vx,vy,vz) for set SENSOR and time  0.1468750E-01

      2895  5.676667E-01 -7.389439E-01  3.127842E+01

 displacements (vx,vy,vz) for set SENSOR and time  0.1484375E-01

      2895  5.976311E-01 -6.544969E-01  3.053480E+01

 displacements (vx,vy,vz) for set SENSOR and time  0.1500000E-01

      2895  6.225553E-01 -5.923140E-01  2.997443E+01

 displacements (vx,vy,vz) for set SENSOR and time  0.1515625E-01

      2895  6.454190E-01 -5.663552E-01  2.966592E+01

 displacements (vx,vy,vz) for set SENSOR and time  0.1531250E-01

      2895  6.695930E-01 -5.806453E-01  2.965071E+01

 displacements (vx,vy,vz) for set SENSOR and time  0.1546875E-01

      2895  6.955599E-01 -6.278355E-01  2.991734E+01

 displacements (vx,vy,vz) for set SENSOR and time  0.1562500E-01

      2895  7.188883E-01 -6.915347E-01  3.039542E+01

 displacements (vx,vy,vz) for set SENSOR and time  0.1578125E-01

      2895  7.307222E-01 -7.516712E-01  3.097306E+01

 displacements (vx,vy,vz) for set SENSOR and time  0.1593750E-01

      2895  7.209231E-01 -7.909959E-01  3.152842E+01

 displacements (vx,vy,vz) for set SENSOR and time  0.1609375E-01

      2895  6.827315E-01 -8.003875E-01  3.195985E+01

 displacements (vx,vy,vz) for set SENSOR and time  0.1625000E-01

      2895  6.169843E-01 -7.810694E-01  3.220185E+01

 displacements (vx,vy,vz) for set SENSOR and time  0.1640625E-01

      2895  5.339307E-01 -7.430384E-01  3.222378E+01

 displacements (vx,vy,vz) for set SENSOR and time  0.1656250E-01

      2895  4.515709E-01 -7.004661E-01  3.201861E+01

 displacements (vx,vy,vz) for set SENSOR and time  0.1671875E-01

      2895  3.908271E-01 -6.659967E-01  3.159340E+01

 displacements (vx,vy,vz) for set SENSOR and time  0.1687500E-01

      2895  3.691656E-01 -6.462410E-01  3.096909E+01

 displacements (vx,vy,vz) for set SENSOR and time  0.1703125E-01

      2895  3.949623E-01 -6.402071E-01  3.018828E+01

 displacements (vx,vy,vz) for set SENSOR and time  0.1718750E-01

      2895  4.646625E-01 -6.411223E-01  2.932100E+01

 displacements (vx,vy,vz) for set SENSOR and time  0.1734375E-01

      2895  5.637423E-01 -6.406330E-01  2.845728E+01

 displacements (vx,vy,vz) for set SENSOR and time  0.1750000E-01

      2895  6.710738E-01 -6.333422E-01  2.768271E+01

 displacements (vx,vy,vz) for set SENSOR and time  0.1765625E-01

      2895  7.650913E-01 -6.195309E-01  2.704511E+01

 displacements (vx,vy,vz) for set SENSOR and time  0.1781250E-01

      2895  8.296162E-01 -6.047703E-01  2.653013E+01

 displacements (vx,vy,vz) for set SENSOR and time  0.1796875E-01

      2895  8.574847E-01 -5.966156E-01  2.606306E+01

 displacements (vx,vy,vz) for set SENSOR and time  0.1812500E-01

      2895  8.510536E-01 -5.999988E-01  2.554321E+01

 displacements (vx,vy,vz) for set SENSOR and time  0.1828125E-01

      2895  8.198355E-01 -6.136458E-01  2.489915E+01

 displacements (vx,vy,vz) for set SENSOR and time  0.1843750E-01

      2895  7.764585E-01 -6.294585E-01  2.413881E+01

 displacements (vx,vy,vz) for set SENSOR and time  0.1859375E-01

      2895  7.325416E-01 -6.354535E-01  2.336592E+01

 displacements (vx,vy,vz) for set SENSOR and time  0.1875000E-01

      2895  6.958411E-01 -6.211358E-01  2.274713E+01

 displacements (vx,vy,vz) for set SENSOR and time  0.1890625E-01

      2895  6.693361E-01 -5.829092E-01  2.243798E+01

 displacements (vx,vy,vz) for set SENSOR and time  0.1906250E-01

      2895  6.521060E-01 -5.269183E-01  2.249866E+01

 displacements (vx,vy,vz) for set SENSOR and time  0.1921875E-01

      2895  6.412368E-01 -4.677409E-01  2.284043E+01

 displacements (vx,vy,vz) for set SENSOR and time  0.1937500E-01

      2895  6.337815E-01 -4.231752E-01  2.323406E+01

 displacements (vx,vy,vz) for set SENSOR and time  0.1953125E-01

      2895  6.280019E-01 -4.071772E-01  2.338505E+01

 displacements (vx,vy,vz) for set SENSOR and time  0.1968750E-01

      2895  6.235941E-01 -4.239406E-01  2.304924E+01

 displacements (vx,vy,vz) for set SENSOR and time  0.1984375E-01

      2895  6.210968E-01 -4.657258E-01  2.214040E+01

 displacements (vx,vy,vz) for set SENSOR and time  0.2000000E-01

      2895  6.210029E-01 -5.154681E-01  2.078170E+01

 displacements (vx,vy,vz) for set SENSOR and time  0.2015625E-01

      2895  6.231293E-01 -5.531430E-01  1.927481E+01

 displacements (vx,vy,vz) for set SENSOR and time  0.2031250E-01

      2895  6.265674E-01 -5.632614E-01  1.799630E+01

 displacements (vx,vy,vz) for set SENSOR and time  0.2046875E-01

      2895  6.301922E-01 -5.404343E-01  1.726297E+01

 displacements (vx,vy,vz) for set SENSOR and time  0.2062500E-01

      2895  6.334046E-01 -4.908511E-01  1.722208E+01

 displacements (vx,vy,vz) for set SENSOR and time  0.2078125E-01

      2895  6.366670E-01 -4.293211E-01  1.781105E+01

 displacements (vx,vy,vz) for set SENSOR and time  0.2093750E-01

      2895  6.415001E-01 -3.733779E-01  1.880033E+01

 displacements (vx,vy,vz) for set SENSOR and time  0.2109375E-01

      2895  6.498740E-01 -3.370285E-01  1.989624E+01

 displacements (vx,vy,vz) for set SENSOR and time  0.2125000E-01

      2895  6.632207E-01 -3.266101E-01  2.085571E+01

 displacements (vx,vy,vz) for set SENSOR and time  0.2140625E-01

      2895  6.814841E-01 -3.400511E-01  2.156229E+01

 displacements (vx,vy,vz) for set SENSOR and time  0.2156250E-01

      2895  7.026177E-01 -3.692507E-01  2.203417E+01

 displacements (vx,vy,vz) for set SENSOR and time  0.2171875E-01

      2895  7.227682E-01 -4.040460E-01  2.236840E+01

 displacements (vx,vy,vz) for set SENSOR and time  0.2187500E-01

      2895  7.371099E-01 -4.358574E-01  2.265513E+01

 displacements (vx,vy,vz) for set SENSOR and time  0.2203125E-01

      2895  7.410596E-01 -4.596449E-01  2.290807E+01

 displacements (vx,vy,vz) for set SENSOR and time  0.2218750E-01

      2895  7.314884E-01 -4.738759E-01  2.304645E+01

 displacements (vx,vy,vz) for set SENSOR and time  0.2234375E-01

      2895  7.075869E-01 -4.791986E-01  2.293641E+01

 displacements (vx,vy,vz) for set SENSOR and time  0.2250000E-01

      2895  6.711908E-01 -4.769556E-01  2.246948E+01

 displacements (vx,vy,vz) for set SENSOR and time  0.2265625E-01

      2895  6.265493E-01 -4.684199E-01  2.163773E+01

 displacements (vx,vy,vz) for set SENSOR and time  0.2281250E-01

      2895  5.796418E-01 -4.549588E-01  2.056680E+01

 displacements (vx,vy,vz) for set SENSOR and time  0.2296875E-01

      2895  5.371917E-01 -4.386550E-01  1.948869E+01

 displacements (vx,vy,vz) for set SENSOR and time  0.2312500E-01

      2895  5.055170E-01 -4.226527E-01  1.866473E+01

 displacements (vx,vy,vz) for set SENSOR and time  0.2328125E-01

      2895  4.893497E-01 -4.107379E-01  1.829205E+01

 displacements (vx,vy,vz) for set SENSOR and time  0.2343750E-01

      2895  4.907926E-01 -4.062225E-01  1.843318E+01

 displacements (vx,vy,vz) for set SENSOR and time  0.2359375E-01

      2895  5.086472E-01 -4.107003E-01  1.899737E+01

 displacements (vx,vy,vz) for set SENSOR and time  0.2375000E-01

      2895  5.383795E-01 -4.233733E-01  1.977805E+01

 displacements (vx,vy,vz) for set SENSOR and time  0.2390625E-01

      2895  5.729128E-01 -4.413388E-01  2.052784E+01

 displacements (vx,vy,vz) for set SENSOR and time  0.2406250E-01

      2895  6.042193E-01 -4.606788E-01  2.103873E+01

 displacements (vx,vy,vz) for set SENSOR and time  0.2421875E-01

      2895  6.253725E-01 -4.777496E-01  2.119742E+01

 displacements (vx,vy,vz) for set SENSOR and time  0.2437500E-01

      2895  6.324522E-01 -4.900054E-01  2.100007E+01

 displacements (vx,vy,vz) for set SENSOR and time  0.2453125E-01

      2895  6.256139E-01 -4.960330E-01  2.052989E+01

 displacements (vx,vy,vz) for set SENSOR and time  0.2468750E-01

      2895  6.088420E-01 -4.950220E-01  1.991456E+01

 displacements (vx,vy,vz) for set SENSOR and time  0.2484375E-01

      2895  5.883602E-01 -4.862807E-01  1.928423E+01

 displacements (vx,vy,vz) for set SENSOR and time  0.2500000E-01

      2895  5.702138E-01 -4.693879E-01  1.874437E+01

 displacements (vx,vy,vz) for set SENSOR and time  0.2515625E-01

      2895  5.579297E-01 -4.451179E-01  1.836636E+01

 displacements (vx,vy,vz) for set SENSOR and time  0.2531250E-01

      2895  5.511944E-01 -4.166535E-01  1.818942E+01

 displacements (vx,vy,vz) for set SENSOR and time  0.2546875E-01

      2895  5.461235E-01 -3.901886E-01  1.822498E+01

 displacements (vx,vy,vz) for set SENSOR and time  0.2562500E-01

      2895  5.370528E-01 -3.741216E-01  1.845837E+01

 displacements (vx,vy,vz) for set SENSOR and time  0.2578125E-01

      2895  5.191285E-01 -3.766647E-01  1.884905E+01

 displacements (vx,vy,vz) for set SENSOR and time  0.2593750E-01

      2895  4.906214E-01 -4.025740E-01  1.933539E+01

 displacements (vx,vy,vz) for set SENSOR and time  0.2609375E-01

      2895  4.539862E-01 -4.503647E-01  1.984808E+01

 displacements (vx,vy,vz) for set SENSOR and time  0.2625000E-01

      2895  4.152245E-01 -5.114367E-01  2.033072E+01

 displacements (vx,vy,vz) for set SENSOR and time  0.2640625E-01

      2895  3.818359E-01 -5.718804E-01  2.075931E+01

 displacements (vx,vy,vz) for set SENSOR and time  0.2656250E-01

      2895  3.602388E-01 -6.166124E-01  2.114965E+01

 displacements (vx,vy,vz) for set SENSOR and time  0.2671875E-01

      2895  3.537363E-01 -6.344122E-01  2.154588E+01

 displacements (vx,vy,vz) for set SENSOR and time  0.2687500E-01

      2895  3.618123E-01 -6.219130E-01  2.199298E+01

 displacements (vx,vy,vz) for set SENSOR and time  0.2703125E-01

      2895  3.809165E-01 -5.849092E-01  2.250528E+01

 displacements (vx,vy,vz) for set SENSOR and time  0.2718750E-01

      2895  4.062296E-01 -5.363897E-01  2.304791E+01

 displacements (vx,vy,vz) for set SENSOR and time  0.2734375E-01

      2895  4.335113E-01 -4.920230E-01  2.354308E+01

 displacements (vx,vy,vz) for set SENSOR and time  0.2750000E-01

      2895  4.601885E-01 -4.648468E-01  2.390186E+01

 displacements (vx,vy,vz) for set SENSOR and time  0.2765625E-01

      2895  4.852952E-01 -4.611924E-01  2.406813E+01

 displacements (vx,vy,vz) for set SENSOR and time  0.2781250E-01

      2895  5.084834E-01 -4.793095E-01  2.405345E+01

 displacements (vx,vy,vz) for set SENSOR and time  0.2796875E-01

      2895  5.287920E-01 -5.110046E-01  2.394344E+01

 displacements (vx,vy,vz) for set SENSOR and time  0.2812500E-01

      2895  5.439443E-01 -5.453931E-01  2.386883E+01

 displacements (vx,vy,vz) for set SENSOR and time  0.2828125E-01

      2895  5.506382E-01 -5.731011E-01  2.395103E+01

 displacements (vx,vy,vz) for set SENSOR and time  0.2843750E-01

      2895  5.457460E-01 -5.892297E-01  2.424604E+01

 displacements (vx,vy,vz) for set SENSOR and time  0.2859375E-01

      2895  5.278511E-01 -5.940794E-01  2.471315E+01

 displacements (vx,vy,vz) for set SENSOR and time  0.2875000E-01

      2895  4.983469E-01 -5.916651E-01  2.522534E+01

 displacements (vx,vy,vz) for set SENSOR and time  0.2890625E-01

      2895  4.615199E-01 -5.869777E-01  2.561950E+01

 displacements (vx,vy,vz) for set SENSOR and time  0.2906250E-01

      2895  4.235108E-01 -5.833702E-01  2.576577E+01

 displacements (vx,vy,vz) for set SENSOR and time  0.2921875E-01

      2895  3.905669E-01 -5.812363E-01  2.562547E+01

 displacements (vx,vy,vz) for set SENSOR and time  0.2937500E-01

      2895  3.673078E-01 -5.784399E-01  2.527055E+01

 displacements (vx,vy,vz) for set SENSOR and time  0.2953125E-01

      2895  3.556872E-01 -5.721088E-01  2.485473E+01

 displacements (vx,vy,vz) for set SENSOR and time  0.2968750E-01

      2895  3.549772E-01 -5.607906E-01  2.454765E+01

 displacements (vx,vy,vz) for set SENSOR and time  0.2984375E-01

      2895  3.626355E-01 -5.458506E-01  2.446077E+01

 displacements (vx,vy,vz) for set SENSOR and time  0.3000000E-01

      2895  3.755471E-01 -5.313827E-01  2.459781E+01

 displacements (vx,vy,vz) for set SENSOR and time  0.3015625E-01

      2895  3.910520E-01 -5.226171E-01  2.485181E+01

 displacements (vx,vy,vz) for set SENSOR and time  0.3031250E-01

      2895  4.073748E-01 -5.235130E-01  2.505032E+01

 displacements (vx,vy,vz) for set SENSOR and time  0.3046875E-01

      2895  4.234344E-01 -5.346187E-01  2.502860E+01

 displacements (vx,vy,vz) for set SENSOR and time  0.3062500E-01

      2895  4.383336E-01 -5.521969E-01  2.469871E+01

 displacements (vx,vy,vz) for set SENSOR and time  0.3078125E-01

      2895  4.509430E-01 -5.691035E-01  2.408440E+01

 displacements (vx,vy,vz) for set SENSOR and time  0.3093750E-01

      2895  4.598634E-01 -5.771748E-01  2.330740E+01

 displacements (vx,vy,vz) for set SENSOR and time  0.3109375E-01

      2895  4.637736E-01 -5.702453E-01  2.253259E+01

 displacements (vx,vy,vz) for set SENSOR and time  0.3125000E-01

      2895  4.619083E-01 -5.466310E-01  2.189727E+01

 displacements (vx,vy,vz) for set SENSOR and time  0.3140625E-01

      2895  4.543240E-01 -5.100945E-01  2.145579E+01

 displacements (vx,vy,vz) for set SENSOR and time  0.3156250E-01

      2895  4.417442E-01 -4.688791E-01  2.116334E+01

 displacements (vx,vy,vz) for set SENSOR and time  0.3171875E-01

      2895  4.250427E-01 -4.331288E-01  2.090384E+01

 displacements (vx,vy,vz) for set SENSOR and time  0.3187500E-01

      2895  4.046764E-01 -4.116087E-01  2.054783E+01

 displacements (vx,vy,vz) for set SENSOR and time  0.3203125E-01

      2895  3.804548E-01 -4.088796E-01  2.001306E+01

 displacements (vx,vy,vz) for set SENSOR and time  0.3218750E-01

      2895  3.518768E-01 -4.238793E-01  1.930095E+01

 displacements (vx,vy,vz) for set SENSOR and time  0.3234375E-01

      2895  3.189456E-01 -4.503226E-01  1.849358E+01

 displacements (vx,vy,vz) for set SENSOR and time  0.3250000E-01

      2895  2.830638E-01 -4.786753E-01  1.771410E+01

 displacements (vx,vy,vz) for set SENSOR and time  0.3265625E-01

      2895  2.474776E-01 -4.989485E-01  1.706941E+01

 displacements (vx,vy,vz) for set SENSOR and time  0.3281250E-01

      2895  2.168841E-01 -5.033683E-01  1.660073E+01

 displacements (vx,vy,vz) for set SENSOR and time  0.3296875E-01

      2895  1.961866E-01 -4.881433E-01  1.626330E+01

 displacements (vx,vy,vz) for set SENSOR and time  0.3312500E-01

      2895  1.888122E-01 -4.539602E-01  1.594269E+01

 displacements (vx,vy,vz) for set SENSOR and time  0.3328125E-01

      2895  1.952792E-01 -4.052990E-01  1.549966E+01

 displacements (vx,vy,vz) for set SENSOR and time  0.3343750E-01

      2895  2.126734E-01 -3.489881E-01  1.482386E+01

 displacements (vx,vy,vz) for set SENSOR and time  0.3359375E-01

      2895  2.353505E-01 -2.925241E-01  1.387463E+01

 displacements (vx,vy,vz) for set SENSOR and time  0.3375000E-01

      2895  2.566695E-01 -2.425847E-01  1.269397E+01

 displacements (vx,vy,vz) for set SENSOR and time  0.3390625E-01

      2895  2.711030E-01 -2.039700E-01  1.138911E+01

 displacements (vx,vy,vz) for set SENSOR and time  0.3406250E-01

      2895  2.758899E-01 -1.790282E-01  1.009449E+01

 displacements (vx,vy,vz) for set SENSOR and time  0.3421875E-01

      2895  2.715738E-01 -1.675329E-01  8.929351E+00

 displacements (vx,vy,vz) for set SENSOR and time  0.3437500E-01

      2895  2.612401E-01 -1.669648E-01  7.966627E+00

 displacements (vx,vy,vz) for set SENSOR and time  0.3453125E-01

      2895  2.488228E-01 -1.731524E-01  7.221857E+00

 displacements (vx,vy,vz) for set SENSOR and time  0.3468750E-01

      2895  2.372400E-01 -1.811925E-01  6.661701E+00

 displacements (vx,vy,vz) for set SENSOR and time  0.3484375E-01

      2895  2.271706E-01 -1.864825E-01  6.224321E+00

 displacements (vx,vy,vz) for set SENSOR and time  0.3500000E-01

      2895  2.169777E-01 -1.856151E-01  5.841378E+00

 displacements (vx,vy,vz) for set SENSOR and time  0.3515625E-01

      2895  2.037592E-01 -1.768796E-01  5.453748E+00

 displacements (vx,vy,vz) for set SENSOR and time  0.3531250E-01

      2895  1.850046E-01 -1.602287E-01  5.018161E+00

 displacements (vx,vy,vz) for set SENSOR and time  0.3546875E-01

      2895  1.600806E-01 -1.367863E-01  4.506950E+00

 displacements (vx,vy,vz) for set SENSOR and time  0.3562500E-01

      2895  1.308701E-01 -1.081722E-01  3.905408E+00

 displacements (vx,vy,vz) for set SENSOR and time  0.3578125E-01

      2895  1.012915E-01 -7.600622E-02  3.210468E+00

 displacements (vx,vy,vz) for set SENSOR and time  0.3593750E-01

      2895  7.593197E-02 -4.183711E-02  2.431562E+00

 displacements (vx,vy,vz) for set SENSOR and time  0.3609375E-01

      2895  5.841616E-02 -7.476192E-03  1.591728E+00

 displacements (vx,vy,vz) for set SENSOR and time  0.3625000E-01

      2895  5.021756E-02  2.457139E-02  7.260844E-01

 displacements (vx,vy,vz) for set SENSOR and time  0.3640625E-01

      2895  5.038370E-02  5.102211E-02 -1.238832E-01

 displacements (vx,vy,vz) for set SENSOR and time  0.3656250E-01

      2895  5.621030E-02  6.839750E-02 -9.191467E-01

 displacements (vx,vy,vz) for set SENSOR and time  0.3671875E-01

      2895  6.447329E-02  7.424412E-02 -1.631764E+00

 displacements (vx,vy,vz) for set SENSOR and time  0.3687500E-01

      2895  7.260932E-02  6.853976E-02 -2.249705E+00

 displacements (vx,vy,vz) for set SENSOR and time  0.3703125E-01

      2895  7.931615E-02  5.458081E-02 -2.776111E+00

 displacements (vx,vy,vz) for set SENSOR and time  0.3718750E-01

      2895  8.436988E-02  3.872729E-02 -3.224265E+00

 displacements (vx,vy,vz) for set SENSOR and time  0.3734375E-01

      2895  8.785752E-02  2.881401E-02 -3.611839E+00

 displacements (vx,vy,vz) for set SENSOR and time  0.3750000E-01

      2895  8.930470E-02  3.164789E-02 -3.958221E+00

 displacements (vx,vy,vz) for set SENSOR and time  0.3765625E-01

      2895  8.720825E-02  5.051378E-02 -4.286416E+00

 displacements (vx,vy,vz) for set SENSOR and time  0.3781250E-01

      2895  7.925968E-02  8.374103E-02 -4.627512E+00

 displacements (vx,vy,vz) for set SENSOR and time  0.3796875E-01

      2895  6.318749E-02  1.250344E-01 -5.023005E+00

 displacements (vx,vy,vz) for set SENSOR and time  0.3812500E-01

      2895  3.783342E-02  1.655690E-01 -5.520214E+00

 displacements (vx,vy,vz) for set SENSOR and time  0.3828125E-01

      2895  3.959769E-03  1.970917E-01 -6.159211E+00

 displacements (vx,vy,vz) for set SENSOR and time  0.3843750E-01

      2895 -3.559116E-02  2.148131E-01 -6.954661E+00

 displacements (vx,vy,vz) for set SENSOR and time  0.3859375E-01

      2895 -7.647023E-02  2.189289E-01 -7.880386E+00

 displacements (vx,vy,vz) for set SENSOR and time  0.3875000E-01

      2895 -1.138972E-01  2.141795E-01 -8.865489E+00

 displacements (vx,vy,vz) for set SENSOR and time  0.3890625E-01

      2895 -1.438221E-01  2.076805E-01 -9.807470E+00

 displacements (vx,vy,vz) for set SENSOR and time  0.3906250E-01

      2895 -1.637703E-01  2.059758E-01 -1.060074E+01