
 displacements (vx,vy,vz) for set SENSOR and time  0.1562500E-03

      2895  2.838286E-02 -2.816096E-02  2.949763E-02

 displacements (vx,vy,vz) for set SENSOR and time  0.3125000E-03

      2895  1.622100E-01 -1.631413E-01  2.799462E-01

 displacements (vx,vy,vz) for set SENSOR and time  0.4687500E-03

      2895  2.885319E-01 -2.993200E-01  1.017006E+00

 displacements (vx,vy,vz) for set SENSOR and time  0.6250000E-03

      2895  3.576491E-01 -3.873992E-01  2.474293E+00

 displacements (vx,vy,vz) for set SENSOR and time  0.7812500E-03

      2895  3.682488E-01 -4.151616E-01  4.642979E+00

 displacements (vx,vy,vz) for set SENSOR and time  0.9375000E-03

      2895  3.372551E-01 -3.826842E-01  7.266563E+00

 displacements (vx,vy,vz) for set SENSOR and time  0.1093750E-02

      2895  2.911608E-01 -3.036635E-01  9.957606E+00

 displacements (vx,vy,vz) for set SENSOR and time  0.1250000E-02

      2895  2.544525E-01 -2.030807E-01  1.234991E+01

 displacements (vx,vy,vz) for set SENSOR and time  0.1406250E-02

      2895  2.402327E-01 -1.109499E-01  1.421708E+01

 displacements (vx,vy,vz) for set SENSOR and time  0.1562500E-02

      2895  2.467941E-01 -5.379174E-02  1.551097E+01

 displacements (vx,vy,vz) for set SENSOR and time  0.1718750E-02

      2895  2.609861E-01 -4.695231E-02  1.631685E+01

 displacements (vx,vy,vz) for set SENSOR and time  0.1875000E-02

      2895  2.661880E-01 -9.093584E-02  1.676237E+01

 displacements (vx,vy,vz) for set SENSOR and time  0.2031250E-02

      2895  2.509183E-01 -1.732694E-01  1.693665E+01

 displacements (vx,vy,vz) for set SENSOR and time  0.2187500E-02

      2895  2.142657E-01 -2.748325E-01  1.686297E+01

 displacements (vx,vy,vz) for set SENSOR and time  0.2343750E-02

      2895  1.661341E-01 -3.774372E-01  1.653466E+01

 displacements (vx,vy,vz) for set SENSOR and time  0.2500000E-02

      2895  1.227678E-01 -4.689771E-01  1.598560E+01

 displacements (vx,vy,vz) for set SENSOR and time  0.2656250E-02

      2895  9.997341E-02 -5.440047E-01  1.534613E+01

 displacements (vx,vy,vz) for set SENSOR and time  0.2812500E-02

      2895  1.070952E-01 -6.003245E-01  1.484266E+01

 displacements (vx,vy,vz) for set SENSOR and time  0.2968750E-02

      2895  1.440464E-01 -6.345615E-01  1.473010E+01

 displacements (vx,vy,vz) for set SENSOR and time  0.3125000E-02

      2895  2.020983E-01 -6.402594E-01  1.518516E+01

 displacements (vx,vy,vz) for set SENSOR and time  0.3281250E-02

      2895  2.675329E-01 -6.104652E-01  1.621296E+01

 displacements (vx,vy,vz) for set SENSOR and time  0.3437500E-02

      2895  3.263406E-01 -5.438131E-01  1.761789E+01

 displacements (vx,vy,vz) for set SENSOR and time  0.3593750E-02

      2895  3.681456E-01 -4.505099E-01  1.906061E+01

 displacements (vx,vy,vz) for set SENSOR and time  0.3750000E-02

      2895  3.882401E-01 -3.539535E-01  2.018204E+01

 displacements (vx,vy,vz) for set SENSOR and time  0.3906250E-02

      2895  3.875242E-01 -2.855464E-01  2.074210E+01

 displacements (vx,vy,vz) for set SENSOR and time  0.4062500E-02

      2895  3.708637E-01 -2.737723E-01  2.071266E+01

 displacements (vx,vy,vz) for set SENSOR and time  0.4218750E-02

      2895  3.446793E-01 -3.319587E-01  2.028463E+01

 displacements (vx,vy,vz) for set SENSOR and time  0.4375000E-02

      2895  3.145457E-01 -4.505036E-01  1.978825E+01

 displacements (vx,vy,vz) for set SENSOR and time  0.4531250E-02

      2895  2.833894E-01 -5.978173E-01  1.956436E+01

 displacements (vx,vy,vz) for set SENSOR and time  0.4687500E-02

      2895  2.506891E-01 -7.304560E-01  1.984322E+01

 displacements (vx,vy,vz) for set SENSOR and time  0.4843750E-02

      2895  2.129136E-01 -8.086924E-01  2.067975E+01

 displacements (vx,vy,vz) for set SENSOR and time  0.5000000E-02

      2895  1.652049E-01 -8.111763E-01  2.196339E+01

 displacements (vx,vy,vz) for set SENSOR and time  0.5156250E-02

      2895  1.039606E-01 -7.426368E-01  2.348524E+01

 displacements (vx,vy,vz) for set SENSOR and time  0.5312500E-02

      2895  2.955284E-02 -6.316122E-01  2.502115E+01

 displacements (vx,vy,vz) for set SENSOR and time  0.5468750E-02

      2895 -5.186146E-02 -5.194715E-01  2.638972E+01

 displacements (vx,vy,vz) for set SENSOR and time  0.5625000E-02

      2895 -1.284079E-01 -4.454974E-01  2.746496E+01

 displacements (vx,vy,vz) for set SENSOR and time  0.5781250E-02

      2895 -1.848718E-01 -4.339929E-01  2.815318E+01

 displacements (vx,vy,vz) for set SENSOR and time  0.5937500E-02

      2895 -2.069468E-01 -4.879425E-01  2.836451E+01

 displacements (vx,vy,vz) for set SENSOR and time  0.6093750E-02

      2895 -1.860606E-01 -5.906039E-01  2.801048E+01

 displacements (vx,vy,vz) for set SENSOR and time  0.6250000E-02

      2895 -1.230339E-01 -7.131658E-01  2.703988E+01

 displacements (vx,vy,vz) for set SENSOR and time  0.6406250E-02

      2895 -2.906714E-02 -8.246947E-01  2.549727E+01

 displacements (vx,vy,vz) for set SENSOR and time  0.6562500E-02

      2895  7.657280E-02 -9.006105E-01  2.356801E+01

 displacements (vx,vy,vz) for set SENSOR and time  0.6718750E-02

      2895  1.715886E-01 -9.274511E-01  2.157341E+01

 displacements (vx,vy,vz) for set SENSOR and time  0.6875000E-02

      2895  2.367981E-01 -9.036777E-01  1.990126E+01

 displacements (vx,vy,vz) for set SENSOR and time  0.7031250E-02

      2895  2.613367E-01 -8.376956E-01  1.888966E+01

 displacements (vx,vy,vz) for set SENSOR and time  0.7187500E-02

      2895  2.452014E-01 -7.446490E-01  1.870926E+01

 displacements (vx,vy,vz) for set SENSOR and time  0.7343750E-02

      2895  1.983822E-01 -6.430752E-01  1.929596E+01

 displacements (vx,vy,vz) for set SENSOR and time  0.7500000E-02

      2895  1.370352E-01 -5.517865E-01  2.036693E+01

 displacements (vx,vy,vz) for set SENSOR and time  0.7656250E-02

      2895  7.812505E-02 -4.869548E-01  2.151772E+01

 displacements (vx,vy,vz) for set SENSOR and time  0.7812500E-02

      2895  3.438060E-02 -4.594773E-01  2.236182E+01

 displacements (vx,vy,vz) for set SENSOR and time  0.7968750E-02

      2895  1.115776E-02 -4.730583E-01  2.265585E+01

 displacements (vx,vy,vz) for set SENSOR and time  0.8125000E-02

      2895  6.036381E-03 -5.236203E-01  2.236114E+01

 displacements (vx,vy,vz) for set SENSOR and time  0.8281250E-02

      2895  1.101032E-02 -6.003906E-01  2.162265E+01

 displacements (vx,vy,vz) for set SENSOR and time  0.8437500E-02

      2895  1.629613E-02 -6.884030E-01  2.068340E+01

 displacements (vx,vy,vz) for set SENSOR and time  0.8593750E-02

      2895  1.434321E-02 -7.715831E-01  1.977944E+01

 displacements (vx,vy,vz) for set SENSOR and time  0.8750000E-02

      2895  2.679411E-03 -8.354501E-01  1.906390E+01

 displacements (vx,vy,vz) for set SENSOR and time  0.8906250E-02

      2895 -1.528548E-02 -8.688680E-01  1.858873E+01

 displacements (vx,vy,vz) for set SENSOR and time  0.9062500E-02

      2895 -3.163339E-02 -8.649488E-01  1.834026E+01

 displacements (vx,vy,vz) for set SENSOR and time  0.9218750E-02

      2895 -3.687584E-02 -8.216706E-01  1.829745E+01

 displacements (vx,vy,vz) for set SENSOR and time  0.9375000E-02

      2895 -2.333737E-02 -7.426718E-01  1.847275E+01

 displacements (vx,vy,vz) for set SENSOR and time  0.9531250E-02

      2895  1.222792E-02 -6.380625E-01  1.890882E+01

 displacements (vx,vy,vz) for set SENSOR and time  0.9687500E-02

      2895  6.764868E-02 -5.243867E-01  1.963291E+01

 displacements (vx,vy,vz) for set SENSOR and time  0.9843750E-02

      2895  1.361759E-01 -4.226625E-01  2.059715E+01

 displacements (vx,vy,vz) for set SENSOR and time  0.1000000E-01

      2895  2.086336E-01 -3.540431E-01  2.164467E+01

 displacements (vx,vy,vz) for set SENSOR and time  0.1015625E-01

      2895  2.758977E-01 -3.338969E-01  2.253030E+01

 displacements (vx,vy,vz) for set SENSOR and time  0.1031250E-01

      2895  3.307068E-01 -3.663330E-01  2.299684E+01

 displacements (vx,vy,vz) for set SENSOR and time  0.1046875E-01

      2895  3.682546E-01 -4.416253E-01  2.287742E+01

 displacements (vx,vy,vz) for set SENSOR and time  0.1062500E-01

      2895  3.857060E-01 -5.381827E-01  2.217697E+01

 displacements (vx,vy,vz) for set SENSOR and time  0.1078125E-01

      2895  3.813595E-01 -6.289017E-01  2.109121E+01

 displacements (vx,vy,vz) for set SENSOR and time  0.1093750E-01

      2895  3.543409E-01 -6.897565E-01  1.994772E+01

 displacements (vx,vy,vz) for set SENSOR and time  0.1109375E-01

      2895  3.053350E-01 -7.073318E-01  1.908864E+01

 displacements (vx,vy,vz) for set SENSOR and time  0.1125000E-01

      2895  2.381181E-01 -6.823456E-01  1.874245E+01

 displacements (vx,vy,vz) for set SENSOR and time  0.1140625E-01

      2895  1.609530E-01 -6.279297E-01  1.893833E+01

 displacements (vx,vy,vz) for set SENSOR and time  0.1156250E-01

      2895  8.664881E-02 -5.637234E-01  1.949981E+01

 displacements (vx,vy,vz) for set SENSOR and time  0.1171875E-01

      2895  3.051603E-02 -5.085583E-01  2.012035E+01

 displacements (vx,vy,vz) for set SENSOR and time  0.1187500E-01

      2895  6.408106E-03 -4.748409E-01  2.048922E+01

 displacements (vx,vy,vz) for set SENSOR and time  0.1203125E-01

      2895  2.211518E-02 -4.665763E-01  2.041549E+01

 displacements (vx,vy,vz) for set SENSOR and time  0.1218750E-01

      2895  7.598816E-02 -4.810050E-01  1.990040E+01

 displacements (vx,vy,vz) for set SENSOR and time  0.1234375E-01

      2895  1.564520E-01 -5.121148E-01  1.913195E+01

 displacements (vx,vy,vz) for set SENSOR and time  0.1250000E-01

      2895  2.450172E-01 -5.537149E-01  1.840828E+01

 displacements (vx,vy,vz) for set SENSOR and time  0.1265625E-01

      2895  3.219458E-01 -6.005266E-01  1.802478E+01

 displacements (vx,vy,vz) for set SENSOR and time  0.1281250E-01

      2895  3.725296E-01 -6.473050E-01  1.817185E+01

 displacements (vx,vy,vz) for set SENSOR and time  0.1296875E-01

      2895  3.915734E-01 -6.873847E-01  1.888114E+01

 displacements (vx,vy,vz) for set SENSOR and time  0.1312500E-01

      2895  3.843503E-01 -7.124390E-01  2.003512E+01

 displacements (vx,vy,vz) for set SENSOR and time  0.1328125E-01

      2895  3.637228E-01 -7.144200E-01  2.142757E+01

 displacements (vx,vy,vz) for set SENSOR and time  0.1343750E-01

      2895  3.446828E-01 -6.891416E-01  2.284347E+01

 displacements (vx,vy,vz) for set SENSOR and time  0.1359375E-01

      2895  3.385463E-01 -6.396744E-01  2.412339E+01

 displacements (vx,vy,vz) for set SENSOR and time  0.1375000E-01

      2895  3.490480E-01 -5.774455E-01  2.518922E+01

 displacements (vx,vy,vz) for set SENSOR and time  0.1390625E-01

      2895  3.716511E-01 -5.198840E-01  2.602812E+01

 displacements (vx,vy,vz) for set SENSOR and time  0.1406250E-01

      2895  3.959963E-01 -4.851399E-01  2.665102E+01

 displacements (vx,vy,vz) for set SENSOR and time  0.1421875E-01

      2895  4.102040E-01 -4.859139E-01  2.705137E+01

 displacements (vx,vy,vz) for set SENSOR and time  0.1437500E-01

      2895  4.052105E-01 -5.249674E-01  2.718704E+01

 displacements (vx,vy,vz) for set SENSOR and time  0.1453125E-01

      2895  3.776067E-01 -5.941441E-01  2.699477E+01

 displacements (vx,vy,vz) for set SENSOR and time  0.1468750E-01

      2895  3.302944E-01 -6.771474E-01  2.642970E+01

 displacements (vx,vy,vz) for set SENSOR and time  0.1484375E-01

      2895  2.712090E-01 -7.547097E-01  2.550997E+01

 displacements (vx,vy,vz) for set SENSOR and time  0.1500000E-01

      2895  2.109506E-01 -8.099679E-01  2.434320E+01

 displacements (vx,vy,vz) for set SENSOR and time  0.1515625E-01

      2895  1.602431E-01 -8.321441E-01  2.311910E+01

 displacements (vx,vy,vz) for set SENSOR and time  0.1531250E-01

      2895  1.278241E-01 -8.177505E-01  2.206669E+01

 displacements (vx,vy,vz) for set SENSOR and time  0.1546875E-01

      2895  1.189654E-01 -7.697787E-01  2.138934E+01

 displacements (vx,vy,vz) for set SENSOR and time  0.1562500E-01

      2895  1.345975E-01 -6.960265E-01  2.120037E+01

 displacements (vx,vy,vz) for set SENSOR and time  0.1578125E-01

      2895  1.710479E-01 -6.075662E-01  2.148247E+01

 displacements (vx,vy,vz) for set SENSOR and time  0.1593750E-01

      2895  2.205503E-01 -5.176222E-01  2.208567E+01

 displacements (vx,vy,vz) for set SENSOR and time  0.1609375E-01

      2895  2.727159E-01 -4.403770E-01  2.276529E+01

 displacements (vx,vy,vz) for set SENSOR and time  0.1625000E-01

      2895  3.169137E-01 -3.890278E-01  2.324775E+01

 displacements (vx,vy,vz) for set SENSOR and time  0.1640625E-01

      2895  3.450497E-01 -3.729091E-01  2.330388E+01

 displacements (vx,vy,vz) for set SENSOR and time  0.1656250E-01

      2895  3.538279E-01 -3.943864E-01  2.280778E+01

 displacements (vx,vy,vz) for set SENSOR and time  0.1671875E-01

      2895  3.455170E-01 -4.468952E-01  2.176582E+01

 displacements (vx,vy,vz) for set SENSOR and time  0.1687500E-01

      2895  3.267007E-01 -5.154490E-01  2.031019E+01

 displacements (vx,vy,vz) for set SENSOR and time  0.1703125E-01

      2895  3.053198E-01 -5.800798E-01  1.866207E+01

 displacements (vx,vy,vz) for set SENSOR and time  0.1718750E-01

      2895  2.871527E-01 -6.213754E-01  1.707691E+01

 displacements (vx,vy,vz) for set SENSOR and time  0.1734375E-01

      2895  2.732744E-01 -6.262320E-01  1.578721E+01

 displacements (vx,vy,vz) for set SENSOR and time  0.1750000E-01

      2895  2.597246E-01 -5.916980E-01  1.495612E+01

 displacements (vx,vy,vz) for set SENSOR and time  0.1765625E-01

      2895  2.396714E-01 -5.255084E-01  1.465053E+01

 displacements (vx,vy,vz) for set SENSOR and time  0.1781250E-01

      2895  2.071980E-01 -4.432504E-01  1.483696E+01

 displacements (vx,vy,vz) for set SENSOR and time  0.1796875E-01

      2895  1.610159E-01 -3.634031E-01  1.539797E+01

 displacements (vx,vy,vz) for set SENSOR and time  0.1812500E-01

      2895  1.063437E-01 -3.021576E-01  1.616389E+01

 displacements (vx,vy,vz) for set SENSOR and time  0.1828125E-01

      2895  5.395869E-02 -2.697072E-01  1.695195E+01

 displacements (vx,vy,vz) for set SENSOR and time  0.1843750E-01

      2895  1.667962E-02 -2.688195E-01  1.760422E+01

 displacements (vx,vy,vz) for set SENSOR and time  0.1859375E-01

      2895  4.707724E-03 -2.954915E-01  1.801593E+01

 displacements (vx,vy,vz) for set SENSOR and time  0.1875000E-01

      2895  2.178121E-02 -3.408442E-01  1.814818E+01

 displacements (vx,vy,vz) for set SENSOR and time  0.1890625E-01

      2895  6.374883E-02 -3.933628E-01  1.802244E+01

 displacements (vx,vy,vz) for set SENSOR and time  0.1906250E-01

      2895  1.201105E-01 -4.409805E-01  1.769966E+01

 displacements (vx,vy,vz) for set SENSOR and time  0.1921875E-01

      2895  1.778052E-01 -4.729539E-01  1.725174E+01

 displacements (vx,vy,vz) for set SENSOR and time  0.1937500E-01

      2895  2.256266E-01 -4.816508E-01  1.673546E+01

 displacements (vx,vy,vz) for set SENSOR and time  0.1953125E-01

      2895  2.574947E-01 -4.641694E-01  1.617837E+01

 displacements (vx,vy,vz) for set SENSOR and time  0.1968750E-01

      2895  2.734267E-01 -4.233504E-01  1.558080E+01

 displacements (vx,vy,vz) for set SENSOR and time  0.1984375E-01

      2895  2.781021E-01 -3.675702E-01  1.493153E+01

 displacements (vx,vy,vz) for set SENSOR and time  0.2000000E-01

      2895  2.779053E-01 -3.089555E-01  1.422815E+01

 displacements (vx,vy,vz) for set SENSOR and time  0.2015625E-01

      2895  2.778342E-01 -2.602899E-01  1.349131E+01

 displacements (vx,vy,vz) for set SENSOR and time  0.2031250E-01

      2895  2.795197E-01 -2.315552E-01  1.276496E+01

 displacements (vx,vy,vz) for set SENSOR and time  0.2046875E-01

      2895  2.809677E-01 -2.273619E-01  1.210219E+01

 displacements (vx,vy,vz) for set SENSOR and time  0.2062500E-01

      2895  2.778424E-01 -2.462208E-01  1.154420E+01

 displacements (vx,vy,vz) for set SENSOR and time  0.2078125E-01

      2895  2.655392E-01 -2.818092E-01  1.110434E+01

 displacements (vx,vy,vz) for set SENSOR and time  0.2093750E-01

      2895  2.411382E-01 -3.254914E-01  1.076740E+01

 displacements (vx,vy,vz) for set SENSOR and time  0.2109375E-01

      2895  2.045731E-01 -3.688504E-01  1.050639E+01

 displacements (vx,vy,vz) for set SENSOR and time  0.2125000E-01

      2895  1.587980E-01 -4.051633E-01  1.030916E+01

 displacements (vx,vy,vz) for set SENSOR and time  0.2140625E-01

      2895  1.091434E-01 -4.294976E-01  1.019966E+01

 displacements (vx,vy,vz) for set SENSOR and time  0.2156250E-01

      2895  6.224496E-02 -4.379901E-01  1.023944E+01

 displacements (vx,vy,vz) for set SENSOR and time  0.2171875E-01

      2895  2.490062E-02 -4.273607E-01  1.050279E+01

 displacements (vx,vy,vz) for set SENSOR and time  0.2187500E-01

      2895  3.040074E-03 -3.955042E-01  1.103298E+01

 displacements (vx,vy,vz) for set SENSOR and time  0.2203125E-01

      2895  8.446271E-04 -3.431936E-01  1.179851E+01

 displacements (vx,vy,vz) for set SENSOR and time  0.2218750E-01

      2895  2.000808E-02 -2.759843E-01  1.267249E+01

 displacements (vx,vy,vz) for set SENSOR and time  0.2234375E-01

      2895  5.919848E-02 -2.049111E-01  1.345115E+01

 displacements (vx,vy,vz) for set SENSOR and time  0.2250000E-01

      2895  1.138793E-01 -1.448853E-01  1.391128E+01

 displacements (vx,vy,vz) for set SENSOR and time  0.2265625E-01

      2895  1.766815E-01 -1.107329E-01  1.388825E+01

 displacements (vx,vy,vz) for set SENSOR and time  0.2281250E-01

      2895  2.384257E-01 -1.120911E-01  1.334433E+01

 displacements (vx,vy,vz) for set SENSOR and time  0.2296875E-01

      2895  2.897015E-01 -1.492060E-01  1.239757E+01

 displacements (vx,vy,vz) for set SENSOR and time  0.2312500E-01

      2895  3.226915E-01 -2.115954E-01  1.129552E+01

 displacements (vx,vy,vz) for set SENSOR and time  0.2328125E-01

      2895  3.327932E-01 -2.804983E-01  1.034006E+01

 displacements (vx,vy,vz) for set SENSOR and time  0.2343750E-01

      2895  3.195985E-01 -3.344959E-01  9.789710E+00

 displacements (vx,vy,vz) for set SENSOR and time  0.2359375E-01

      2895  2.869498E-01 -3.563340E-01  9.775878E+00

 displacements (vx,vy,vz) for set SENSOR and time  0.2375000E-01

      2895  2.420427E-01 -3.384488E-01  1.026403E+01

 displacements (vx,vy,vz) for set SENSOR and time  0.2390625E-01

      2895  1.938067E-01 -2.851983E-01  1.107277E+01

 displacements (vx,vy,vz) for set SENSOR and time  0.2406250E-01

      2895  1.509825E-01 -2.111069E-01  1.194068E+01

 displacements (vx,vy,vz) for set SENSOR and time  0.2421875E-01

      2895  1.203833E-01 -1.359324E-01  1.261272E+01

 displacements (vx,vy,vz) for set SENSOR and time  0.2437500E-01

      2895  1.057549E-01 -7.844436E-02  1.291288E+01

 displacements (vx,vy,vz) for set SENSOR and time  0.2453125E-01

      2895  1.074811E-01 -5.105914E-02  1.277847E+01

 displacements (vx,vy,vz) for set SENSOR and time  0.2468750E-01

      2895  1.231378E-01 -5.692861E-02  1.225002E+01

 displacements (vx,vy,vz) for set SENSOR and time  0.2484375E-01

      2895  1.486761E-01 -9.004262E-02  1.142954E+01

 displacements (vx,vy,vz) for set SENSOR and time  0.2500000E-01

      2895  1.798413E-01 -1.378670E-01  1.043105E+01

 displacements (vx,vy,vz) for set SENSOR and time  0.2515625E-01

      2895  2.133906E-01 -1.853627E-01  9.346269E+00

 displacements (vx,vy,vz) for set SENSOR and time  0.2531250E-01

      2895  2.477549E-01 -2.190665E-01  8.236744E+00

 displacements (vx,vy,vz) for set SENSOR and time  0.2546875E-01

      2895  2.829891E-01 -2.301751E-01  7.148566E+00

 displacements (vx,vy,vz) for set SENSOR and time  0.2562500E-01

      2895  3.200995E-01 -2.160485E-01  6.134330E+00

 displacements (vx,vy,vz) for set SENSOR and time  0.2578125E-01

      2895  3.600447E-01 -1.800385E-01  5.264952E+00

 displacements (vx,vy,vz) for set SENSOR and time  0.2593750E-01

      2895  4.027960E-01 -1.299366E-01  4.621320E+00

 displacements (vx,vy,vz) for set SENSOR and time  0.2609375E-01

      2895  4.467898E-01 -7.559208E-02  4.268199E+00

 displacements (vx,vy,vz) for set SENSOR and time  0.2625000E-01

      2895  4.889383E-01 -2.637639E-02  4.223465E+00

 displacements (vx,vy,vz) for set SENSOR and time  0.2640625E-01

      2895  5.251536E-01  1.084480E-02  4.439184E+00

 displacements (vx,vy,vz) for set SENSOR and time  0.2656250E-01

      2895  5.511855E-01  3.275385E-02  4.805830E+00

 displacements (vx,vy,vz) for set SENSOR and time  0.2671875E-01

      2895  5.635151E-01  3.949390E-02  5.179930E+00

 displacements (vx,vy,vz) for set SENSOR and time  0.2687500E-01

      2895  5.600944E-01  3.370914E-02  5.424451E+00

 displacements (vx,vy,vz) for set SENSOR and time  0.2703125E-01

      2895  5.408212E-01  1.927543E-02  5.445684E+00

 displacements (vx,vy,vz) for set SENSOR and time  0.2718750E-01

      2895  5.077196E-01  3.363532E-04  5.212698E+00

 displacements (vx,vy,vz) for set SENSOR and time  0.2734375E-01

      2895  4.648278E-01 -1.899837E-02  4.753908E+00

 displacements (vx,vy,vz) for set SENSOR and time  0.2750000E-01

      2895  4.177795E-01 -3.439642E-02  4.135468E+00

 displacements (vx,vy,vz) for set SENSOR and time  0.2765625E-01

      2895  3.730549E-01 -4.101228E-02  3.432975E+00

 displacements (vx,vy,vz) for set SENSOR and time  0.2781250E-01

      2895  3.369267E-01 -3.380488E-02  2.708521E+00

 displacements (vx,vy,vz) for set SENSOR and time  0.2796875E-01

      2895  3.142450E-01 -8.802954E-03  2.000037E+00

 displacements (vx,vy,vz) for set SENSOR and time  0.2812500E-01

      2895  3.073400E-01  3.495279E-02  1.322493E+00

 displacements (vx,vy,vz) for set SENSOR and time  0.2828125E-01

      2895  3.153988E-01  9.366167E-02  6.750483E-01

 displacements (vx,vy,vz) for set SENSOR and time  0.2843750E-01

      2895  3.345990E-01  1.583039E-01  4.742518E-02

 displacements (vx,vy,vz) for set SENSOR and time  0.2859375E-01

      2895  3.590621E-01  2.162066E-01 -5.777810E-01

 displacements (vx,vy,vz) for set SENSOR and time  0.2875000E-01

      2895  3.823839E-01  2.545190E-01 -1.224994E+00

 displacements (vx,vy,vz) for set SENSOR and time  0.2890625E-01

      2895  3.992558E-01  2.645182E-01 -1.922797E+00

 displacements (vx,vy,vz) for set SENSOR and time  0.2906250E-01

      2895  4.066212E-01  2.450714E-01 -2.694436E+00

 displacements (vx,vy,vz) for set SENSOR and time  0.2921875E-01

      2895  4.039840E-01  2.037159E-01 -3.542651E+00

 displacements (vx,vy,vz) for set SENSOR and time  0.2937500E-01

      2895  3.928273E-01  1.546823E-01 -4.435431E+00

 displacements (vx,vy,vz) for set SENSOR and time  0.2953125E-01

      2895  3.754653E-01  1.144332E-01 -5.302013E+00

 displacements (vx,vy,vz) for set SENSOR and time  0.2968750E-01

      2895  3.538686E-01  9.635107E-02 -6.045837E+00

 displacements (vx,vy,vz) for set SENSOR and time  0.2984375E-01

      2895  3.289665E-01  1.065826E-01 -6.573761E+00

 displacements (vx,vy,vz) for set SENSOR and time  0.3000000E-01

      2895  3.006692E-01  1.425579E-01 -6.832073E+00

 displacements (vx,vy,vz) for set SENSOR and time  0.3015625E-01

      2895  2.684904E-01  1.945716E-01 -6.834264E+00

 displacements (vx,vy,vz) for set SENSOR and time  0.3031250E-01

      2895  2.323763E-01  2.495690E-01 -6.666662E+00

 displacements (vx,vy,vz) for set SENSOR and time  0.3046875E-01

      2895  1.932877E-01  2.954833E-01 -6.466087E+00

 displacements (vx,vy,vz) for set SENSOR and time  0.3062500E-01

      2895  1.532547E-01  3.244503E-01 -6.375577E+00

 displacements (vx,vy,vz) for set SENSOR and time  0.3078125E-01

      2895  1.149235E-01  3.339289E-01 -6.494393E+00

 displacements (vx,vy,vz) for set SENSOR and time  0.3093750E-01

      2895  8.087997E-02  3.257849E-01 -6.842163E+00

 displacements (vx,vy,vz) for set SENSOR and time  0.3109375E-01

      2895  5.311676E-02  3.042469E-01 -7.351969E+00

 displacements (vx,vy,vz) for set SENSOR and time  0.3125000E-01

      2895  3.288390E-02  2.739344E-01 -7.895395E+00

 displacements (vx,vy,vz) for set SENSOR and time  0.3140625E-01

      2895  2.090615E-02  2.388304E-01 -8.329324E+00

 displacements (vx,vy,vz) for set SENSOR and time  0.3156250E-01

      2895  1.772030E-02  2.023686E-01 -8.545356E+00

 displacements (vx,vy,vz) for set SENSOR and time  0.3171875E-01

      2895  2.381597E-02  1.681332E-01 -8.502387E+00

 displacements (vx,vy,vz) for set SENSOR and time  0.3187500E-01

      2895  3.939736E-02  1.403753E-01 -8.230919E+00

 displacements (vx,vy,vz) for set SENSOR and time  0.3203125E-01

      2895  6.384155E-02  1.237346E-01 -7.810474E+00

 displacements (vx,vy,vz) for set SENSOR and time  0.3218750E-01

      2895  9.516175E-02  1.220825E-01 -7.332876E+00

 displacements (vx,vy,vz) for set SENSOR and time  0.3234375E-01

      2895  1.298500E-01  1.369485E-01 -6.869145E+00

 displacements (vx,vy,vz) for set SENSOR and time  0.3250000E-01

      2895  1.633252E-01  1.662847E-01 -6.454151E+00

 displacements (vx,vy,vz) for set SENSOR and time  0.3265625E-01

      2895  1.909179E-01  2.042219E-01 -6.093219E+00

 displacements (vx,vy,vz) for set SENSOR and time  0.3281250E-01

      2895  2.090436E-01  2.420699E-01 -5.783505E+00

 displacements (vx,vy,vz) for set SENSOR and time  0.3296875E-01

      2895  2.160919E-01  2.703171E-01 -5.535817E+00

 displacements (vx,vy,vz) for set SENSOR and time  0.3312500E-01

      2895  2.126742E-01  2.810253E-01 -5.383046E+00

 displacements (vx,vy,vz) for set SENSOR and time  0.3328125E-01

      2895  2.011603E-01  2.699143E-01 -5.368937E+00

 displacements (vx,vy,vz) for set SENSOR and time  0.3343750E-01

      2895  1.847523E-01  2.375679E-01 -5.521851E+00

 displacements (vx,vy,vz) for set SENSOR and time  0.3359375E-01

      2895  1.665319E-01  1.894748E-01 -5.826861E+00

 displacements (vx,vy,vz) for set SENSOR and time  0.3375000E-01

      2895  1.488768E-01  1.349050E-01 -6.211639E+00

 displacements (vx,vy,vz) for set SENSOR and time  0.3390625E-01

      2895  1.334135E-01  8.486295E-02 -6.556059E+00

 displacements (vx,vy,vz) for set SENSOR and time  0.3406250E-01

      2895  1.213722E-01  4.953771E-02 -6.724748E+00

 displacements (vx,vy,vz) for set SENSOR and time  0.3421875E-01

      2895  1.140104E-01  3.579508E-02 -6.611018E+00

 displacements (vx,vy,vz) for set SENSOR and time  0.3437500E-01

      2895  1.127654E-01  4.532755E-02 -6.174768E+00

 displacements (vx,vy,vz) for set SENSOR and time  0.3453125E-01

      2895  1.189853E-01  7.402221E-02 -5.458691E+00

 displacements (vx,vy,vz) for set SENSOR and time  0.3468750E-01

      2895  1.333587E-01  1.128760E-01 -4.575773E+00

 displacements (vx,vy,vz) for set SENSOR and time  0.3484375E-01

      2895  1.553666E-01  1.503721E-01 -3.672603E+00

 displacements (vx,vy,vz) for set SENSOR and time  0.3500000E-01

      2895  1.830991E-01  1.757382E-01 -2.882469E+00

 displacements (vx,vy,vz) for set SENSOR and time  0.3515625E-01

      2895  2.136077E-01  1.821186E-01 -2.285587E+00

 displacements (vx,vy,vz) for set SENSOR and time  0.3531250E-01

      2895  2.436899E-01  1.686123E-01 -1.890111E+00

 displacements (vx,vy,vz) for set SENSOR and time  0.3546875E-01

      2895  2.707708E-01  1.404422E-01 -1.638763E+00

 displacements (vx,vy,vz) for set SENSOR and time  0.3562500E-01

      2895  2.934844E-01  1.071542E-01 -1.436105E+00

 displacements (vx,vy,vz) for set SENSOR and time  0.3578125E-01

      2895  3.116928E-01  7.945985E-02 -1.184691E+00

 displacements (vx,vy,vz) for set SENSOR and time  0.3593750E-01

      2895  3.259534E-01  6.582896E-02 -8.169458E-01

 displacements (vx,vy,vz) for set SENSOR and time  0.3609375E-01

      2895  3.367146E-01  7.000584E-02 -3.132720E-01

 displacements (vx,vy,vz) for set SENSOR and time  0.3625000E-01

      2895  3.436514E-01  9.022040E-02  2.966176E-01

 displacements (vx,vy,vz) for set SENSOR and time  0.3640625E-01

      2895  3.454909E-01  1.201926E-01  9.460583E-01

 displacements (vx,vy,vz) for set SENSOR and time  0.3656250E-01

      2895  3.404438E-01  1.513723E-01  1.550967E+00

 displacements (vx,vy,vz) for set SENSOR and time  0.3671875E-01

      2895  3.270744E-01  1.754977E-01  2.029923E+00

 displacements (vx,vy,vz) for set SENSOR and time  0.3687500E-01

      2895  3.052332E-01  1.866103E-01  2.320365E+00

 displacements (vx,vy,vz) for set SENSOR and time  0.3703125E-01

      2895  2.766354E-01  1.820500E-01  2.389169E+00

 displacements (vx,vy,vz) for set SENSOR and time  0.3718750E-01

      2895  2.448112E-01  1.624401E-01  2.237573E+00

 displacements (vx,vy,vz) for set SENSOR and time  0.3734375E-01

      2895  2.144045E-01  1.310237E-01  1.900773E+00

 displacements (vx,vy,vz) for set SENSOR and time  0.3750000E-01

      2895  1.900500E-01  9.278913E-02  1.442089E+00

 displacements (vx,vy,vz) for set SENSOR and time  0.3765625E-01

      2895  1.752106E-01  5.365496E-02  9.416549E-01

 displacements (vx,vy,vz) for set SENSOR and time  0.3781250E-01

      2895  1.713558E-01  1.974039E-02  4.806298E-01

 displacements (vx,vy,vz) for set SENSOR and time  0.3796875E-01

      2895  1.777212E-01 -3.409187E-03  1.238703E-01

 displacements (vx,vy,vz) for set SENSOR and time  0.3812500E-01

      2895  1.916774E-01 -1.172911E-02 -9.442677E-02

 displacements (vx,vy,vz) for set SENSOR and time  0.3828125E-01

      2895  2.095351E-01 -3.573472E-03 -1.774895E-01

 displacements (vx,vy,vz) for set SENSOR and time  0.3843750E-01

      2895  2.274929E-01  1.961625E-02 -1.625559E-01

 displacements (vx,vy,vz) for set SENSOR and time  0.3859375E-01

      2895  2.424254E-01  5.326746E-02 -1.082058E-01

 displacements (vx,vy,vz) for set SENSOR and time  0.3875000E-01

      2895  2.523011E-01  9.045726E-02 -7.684865E-02

 displacements (vx,vy,vz) for set SENSOR and time  0.3890625E-01

      2895  2.561716E-01  1.234117E-01 -1.185089E-01

 displacements (vx,vy,vz) for set SENSOR and time  0.3906250E-01

      2895  2.538241E-01  1.453134E-01 -2.610970E-01