
 displacements (vx,vy,vz) for set SENSOR and time  0.1562500E-03

      2895 -2.120924E-02  2.111960E-02  3.540864E-01

 displacements (vx,vy,vz) for set SENSOR and time  0.3125000E-03

      2895 -1.244394E-01  1.231798E-01  2.115251E+00

 displacements (vx,vy,vz) for set SENSOR and time  0.4687500E-03

      2895 -2.358925E-01  2.300536E-01  4.188086E+00

 displacements (vx,vy,vz) for set SENSOR and time  0.6250000E-03

      2895 -3.238442E-01  3.076261E-01  6.175926E+00

 displacements (vx,vy,vz) for set SENSOR and time  0.7812500E-03

      2895 -3.808564E-01  3.471685E-01  8.027086E+00

 displacements (vx,vy,vz) for set SENSOR and time  0.9375000E-03

      2895 -4.033289E-01  3.451252E-01  9.680711E+00

 displacements (vx,vy,vz) for set SENSOR and time  0.1093750E-02

      2895 -3.917966E-01  3.032524E-01  1.107177E+01

 displacements (vx,vy,vz) for set SENSOR and time  0.1250000E-02

      2895 -3.506558E-01  2.279479E-01  1.213970E+01

 displacements (vx,vy,vz) for set SENSOR and time  0.1406250E-02

      2895 -2.873768E-01  1.289716E-01  1.283891E+01

 displacements (vx,vy,vz) for set SENSOR and time  0.1562500E-02

      2895 -2.113333E-01  1.785297E-02  1.314863E+01

 displacements (vx,vy,vz) for set SENSOR and time  0.1718750E-02

      2895 -1.324348E-01 -9.369816E-02  1.307970E+01

 displacements (vx,vy,vz) for set SENSOR and time  0.1875000E-02

      2895 -5.977215E-02 -1.951127E-01  1.267647E+01

 displacements (vx,vy,vz) for set SENSOR and time  0.2031250E-02

      2895 -4.776444E-04 -2.778579E-01  1.201293E+01

 displacements (vx,vy,vz) for set SENSOR and time  0.2187500E-02

      2895  4.104063E-02 -3.358742E-01  1.118357E+01

 displacements (vx,vy,vz) for set SENSOR and time  0.2343750E-02

      2895  6.339782E-02 -3.656336E-01  1.029037E+01

 displacements (vx,vy,vz) for set SENSOR and time  0.2500000E-02

      2895  6.805236E-02 -3.659670E-01  9.428435E+00

 displacements (vx,vy,vz) for set SENSOR and time  0.2656250E-02

      2895  5.871479E-02 -3.378184E-01  8.672819E+00

 displacements (vx,vy,vz) for set SENSOR and time  0.2812500E-02

      2895  4.047766E-02 -2.840419E-01  8.068802E+00

 displacements (vx,vy,vz) for set SENSOR and time  0.2968750E-02

      2895  1.883670E-02 -2.092767E-01  7.627288E+00

 displacements (vx,vy,vz) for set SENSOR and time  0.3125000E-02

      2895 -1.221454E-03 -1.198539E-01  7.325778E+00

 displacements (vx,vy,vz) for set SENSOR and time  0.3281250E-02

      2895 -1.591791E-02 -2.362347E-02  7.114428E+00

 displacements (vx,vy,vz) for set SENSOR and time  0.3437500E-02

      2895 -2.307296E-02  7.042074E-02  6.925780E+00

 displacements (vx,vy,vz) for set SENSOR and time  0.3593750E-02

      2895 -2.216470E-02  1.528059E-01  6.686311E+00

 displacements (vx,vy,vz) for set SENSOR and time  0.3750000E-02

      2895 -1.409620E-02  2.145390E-01  6.327862E+00

 displacements (vx,vy,vz) for set SENSOR and time  0.3906250E-02

      2895 -7.644997E-04  2.482617E-01  5.797349E+00

 displacements (vx,vy,vz) for set SENSOR and time  0.4062500E-02

      2895  1.544815E-02  2.494108E-01  5.063700E+00

 displacements (vx,vy,vz) for set SENSOR and time  0.4218750E-02

      2895  3.214257E-02  2.171417E-01  4.121623E+00

 displacements (vx,vy,vz) for set SENSOR and time  0.4375000E-02

      2895  4.724160E-02  1.547798E-01  2.992292E+00

 displacements (vx,vy,vz) for set SENSOR and time  0.4531250E-02

      2895  5.915697E-02  6.963497E-02  1.721404E+00

 displacements (vx,vy,vz) for set SENSOR and time  0.4687500E-02

      2895  6.679364E-02 -2.786171E-02  3.751137E-01

 displacements (vx,vy,vz) for set SENSOR and time  0.4843750E-02

      2895  6.944409E-02 -1.255978E-01 -9.657120E-01

 displacements (vx,vy,vz) for set SENSOR and time  0.5000000E-02

      2895  6.664920E-02 -2.115616E-01 -2.212621E+00

 displacements (vx,vy,vz) for set SENSOR and time  0.5156250E-02

      2895  5.810206E-02 -2.756475E-01 -3.277848E+00

 displacements (vx,vy,vz) for set SENSOR and time  0.5312500E-02

      2895  4.364712E-02 -3.111461E-01 -4.083398E+00

 displacements (vx,vy,vz) for set SENSOR and time  0.5468750E-02

      2895  2.338757E-02 -3.156420E-01 -4.570336E+00

 displacements (vx,vy,vz) for set SENSOR and time  0.5625000E-02

      2895 -2.129900E-03 -2.911587E-01 -4.707284E+00

 displacements (vx,vy,vz) for set SENSOR and time  0.5781250E-02

      2895 -3.171876E-02 -2.435456E-01 -4.496782E+00

 displacements (vx,vy,vz) for set SENSOR and time  0.5937500E-02

      2895 -6.342653E-02 -1.812580E-01 -3.978010E+00

 displacements (vx,vy,vz) for set SENSOR and time  0.6093750E-02

      2895 -9.455211E-02 -1.137933E-01 -3.224569E+00

 displacements (vx,vy,vz) for set SENSOR and time  0.6250000E-02

      2895 -1.218482E-01 -5.010594E-02 -2.336641E+00

 displacements (vx,vy,vz) for set SENSOR and time  0.6406250E-02

      2895 -1.419036E-01  2.699005E-03 -1.427810E+00

 displacements (vx,vy,vz) for set SENSOR and time  0.6562500E-02

      2895 -1.516504E-01  4.017325E-02 -6.080096E-01

 displacements (vx,vy,vz) for set SENSOR and time  0.6718750E-02

      2895 -1.488999E-01  6.074063E-02  3.481829E-02

 displacements (vx,vy,vz) for set SENSOR and time  0.6875000E-02

      2895 -1.327958E-01  6.536176E-02  4.510622E-01

 displacements (vx,vy,vz) for set SENSOR and time  0.7031250E-02

      2895 -1.040766E-01  5.680255E-02  6.403328E-01

 displacements (vx,vy,vz) for set SENSOR and time  0.7187500E-02

      2895 -6.508043E-02  3.872699E-02  6.541123E-01

 displacements (vx,vy,vz) for set SENSOR and time  0.7343750E-02

      2895 -1.947303E-02  1.484144E-02  5.887063E-01

 displacements (vx,vy,vz) for set SENSOR and time  0.7500000E-02

      2895  2.825762E-02 -1.173024E-02  5.688863E-01

 displacements (vx,vy,vz) for set SENSOR and time  0.7656250E-02

      2895  7.344756E-02 -3.874699E-02  7.245936E-01

 displacements (vx,vy,vz) for set SENSOR and time  0.7812500E-02

      2895  1.119213E-01 -6.482970E-02  1.164746E+00

 displacements (vx,vy,vz) for set SENSOR and time  0.7968750E-02

      2895  1.405496E-01 -8.920592E-02  1.953153E+00

 displacements (vx,vy,vz) for set SENSOR and time  0.8125000E-02

      2895  1.576018E-01 -1.113550E-01  3.091505E+00

 displacements (vx,vy,vz) for set SENSOR and time  0.8281250E-02

      2895  1.628409E-01 -1.306932E-01  4.513303E+00

 displacements (vx,vy,vz) for set SENSOR and time  0.8437500E-02

      2895  1.573670E-01 -1.464030E-01  6.090589E+00

 displacements (vx,vy,vz) for set SENSOR and time  0.8593750E-02

      2895  1.432655E-01 -1.574496E-01  7.652791E+00

 displacements (vx,vy,vz) for set SENSOR and time  0.8750000E-02

      2895  1.231519E-01 -1.627607E-01  9.014516E+00

 displacements (vx,vy,vz) for set SENSOR and time  0.8906250E-02

      2895  9.971812E-02 -1.614962E-01  1.000713E+01

 displacements (vx,vy,vz) for set SENSOR and time  0.9062500E-02

      2895  7.536534E-02 -1.533076E-01  1.050804E+01

 displacements (vx,vy,vz) for set SENSOR and time  0.9218750E-02

      2895  5.197918E-02 -1.385029E-01  1.046192E+01

 displacements (vx,vy,vz) for set SENSOR and time  0.9375000E-02

      2895  3.085525E-02 -1.180660E-01  9.889680E+00

 displacements (vx,vy,vz) for set SENSOR and time  0.9531250E-02

      2895  1.274459E-02 -9.353274E-02  8.883388E+00

 displacements (vx,vy,vz) for set SENSOR and time  0.9687500E-02

      2895 -2.038059E-03 -6.677247E-02  7.588363E+00

 displacements (vx,vy,vz) for set SENSOR and time  0.9843750E-02

      2895 -1.350500E-02 -3.974905E-02  6.176136E+00

 displacements (vx,vy,vz) for set SENSOR and time  0.1000000E-01

      2895 -2.193099E-02 -1.433614E-02  4.813953E+00

 displacements (vx,vy,vz) for set SENSOR and time  0.1015625E-01

      2895 -2.784805E-02  7.767575E-03  3.637044E+00

 displacements (vx,vy,vz) for set SENSOR and time  0.1031250E-01

      2895 -3.207917E-02  2.502205E-02  2.729138E+00

 displacements (vx,vy,vz) for set SENSOR and time  0.1046875E-01

      2895 -3.576266E-02  3.597309E-02  2.114821E+00

 displacements (vx,vy,vz) for set SENSOR and time  0.1062500E-01

      2895 -4.030969E-02  3.919834E-02  1.764598E+00

 displacements (vx,vy,vz) for set SENSOR and time  0.1078125E-01

      2895 -4.724967E-02  3.335034E-02  1.610761E+00

 displacements (vx,vy,vz) for set SENSOR and time  0.1093750E-01

      2895 -5.795139E-02  1.734672E-02  1.569803E+00

 displacements (vx,vy,vz) for set SENSOR and time  0.1109375E-01

      2895 -7.325252E-02 -9.294433E-03  1.565888E+00

 displacements (vx,vy,vz) for set SENSOR and time  0.1125000E-01

      2895 -9.307331E-02 -4.603783E-02  1.549836E+00

 displacements (vx,vy,vz) for set SENSOR and time  0.1140625E-01

      2895 -1.161191E-01 -9.094827E-02  1.509425E+00

 displacements (vx,vy,vz) for set SENSOR and time  0.1156250E-01

      2895 -1.397789E-01 -1.404810E-01  1.469027E+00

 displacements (vx,vy,vz) for set SENSOR and time  0.1171875E-01

      2895 -1.602988E-01 -1.895686E-01  1.479218E+00

 displacements (vx,vy,vz) for set SENSOR and time  0.1187500E-01

      2895 -1.732558E-01 -2.320724E-01  1.599457E+00

 displacements (vx,vy,vz) for set SENSOR and time  0.1203125E-01

      2895 -1.742862E-01 -2.615822E-01  1.878489E+00

 displacements (vx,vy,vz) for set SENSOR and time  0.1218750E-01

      2895 -1.599527E-01 -2.724542E-01  2.337591E+00

 displacements (vx,vy,vz) for set SENSOR and time  0.1234375E-01

      2895 -1.285844E-01 -2.609022E-01  2.960977E+00

 displacements (vx,vy,vz) for set SENSOR and time  0.1250000E-01

      2895 -8.090559E-02 -2.259120E-01  3.695772E+00

 displacements (vx,vy,vz) for set SENSOR and time  0.1265625E-01

      2895 -2.029149E-02 -1.697671E-01  4.461597E+00

 displacements (vx,vy,vz) for set SENSOR and time  0.1281250E-01

      2895  4.744831E-02 -9.803028E-02  5.167386E+00

 displacements (vx,vy,vz) for set SENSOR and time  0.1296875E-01

      2895  1.147670E-01 -1.893593E-02  5.731278E+00

 displacements (vx,vy,vz) for set SENSOR and time  0.1312500E-01

      2895  1.734683E-01  5.773455E-02  6.098714E+00

 displacements (vx,vy,vz) for set SENSOR and time  0.1328125E-01

      2895  2.160070E-01  1.221077E-01  6.254328E+00

 displacements (vx,vy,vz) for set SENSOR and time  0.1343750E-01

      2895  2.367676E-01  1.657431E-01  6.224788E+00

 displacements (vx,vy,vz) for set SENSOR and time  0.1359375E-01

      2895  2.330805E-01  1.829478E-01  6.071956E+00

 displacements (vx,vy,vz) for set SENSOR and time  0.1375000E-01

      2895  2.057702E-01  1.716386E-01  5.878123E+00

 displacements (vx,vy,vz) for set SENSOR and time  0.1390625E-01

      2895  1.591178E-01  1.336023E-01  5.726918E+00

 displacements (vx,vy,vz) for set SENSOR and time  0.1406250E-01

      2895  1.002243E-01  7.412250E-02  5.684514E+00

 displacements (vx,vy,vz) for set SENSOR and time  0.1421875E-01

      2895  3.787932E-02  1.068115E-03  5.785533E+00

 displacements (vx,vy,vz) for set SENSOR and time  0.1437500E-01

      2895 -1.886959E-02 -7.636721E-02  6.026814E+00

 displacements (vx,vy,vz) for set SENSOR and time  0.1453125E-01

      2895 -6.219316E-02 -1.490297E-01  6.370182E+00

 displacements (vx,vy,vz) for set SENSOR and time  0.1468750E-01

      2895 -8.674060E-02 -2.090327E-01  6.753111E+00

 displacements (vx,vy,vz) for set SENSOR and time  0.1484375E-01

      2895 -9.046511E-02 -2.506563E-01  7.104251E+00

 displacements (vx,vy,vz) for set SENSOR and time  0.1500000E-01

      2895 -7.487807E-02 -2.708163E-01  7.359700E+00

 displacements (vx,vy,vz) for set SENSOR and time  0.1515625E-01

      2895 -4.470039E-02 -2.690955E-01  7.475852E+00

 displacements (vx,vy,vz) for set SENSOR and time  0.1531250E-01

      2895 -6.987523E-03 -2.474159E-01  7.435735E+00

 displacements (vx,vy,vz) for set SENSOR and time  0.1546875E-01

      2895  3.010688E-02 -2.094839E-01  7.247539E+00

 displacements (vx,vy,vz) for set SENSOR and time  0.1562500E-01

      2895  5.870856E-02 -1.601521E-01  6.936224E+00

 displacements (vx,vy,vz) for set SENSOR and time  0.1578125E-01

      2895  7.250880E-02 -1.048201E-01  6.530925E+00

 displacements (vx,vy,vz) for set SENSOR and time  0.1593750E-01

      2895  6.775475E-02 -4.894461E-02  6.052034E+00

 displacements (vx,vy,vz) for set SENSOR and time  0.1609375E-01

      2895  4.380087E-02  2.327202E-03  5.501936E+00

 displacements (vx,vy,vz) for set SENSOR and time  0.1625000E-01

      2895  3.158541E-03  4.443036E-02  4.862351E+00

 displacements (vx,vy,vz) for set SENSOR and time  0.1640625E-01

      2895 -4.893599E-02  7.361482E-02  4.099467E+00

 displacements (vx,vy,vz) for set SENSOR and time  0.1656250E-01

      2895 -1.053432E-01  8.718198E-02  3.175866E+00

 displacements (vx,vy,vz) for set SENSOR and time  0.1671875E-01

      2895 -1.580895E-01  8.373874E-02  2.066272E+00

 displacements (vx,vy,vz) for set SENSOR and time  0.1687500E-01

      2895 -1.995184E-01  6.343972E-02  7.729468E-01

 displacements (vx,vy,vz) for set SENSOR and time  0.1703125E-01

      2895 -2.233615E-01  2.815151E-02 -6.636508E-01

 displacements (vx,vy,vz) for set SENSOR and time  0.1718750E-01

      2895 -2.255918E-01 -1.854400E-02 -2.162340E+00

 displacements (vx,vy,vz) for set SENSOR and time  0.1734375E-01

      2895 -2.049611E-01 -7.157775E-02 -3.608368E+00

 displacements (vx,vy,vz) for set SENSOR and time  0.1750000E-01

      2895 -1.631681E-01 -1.248825E-01 -4.869412E+00

 displacements (vx,vy,vz) for set SENSOR and time  0.1765625E-01

      2895 -1.046529E-01 -1.721111E-01 -5.817417E+00

 displacements (vx,vy,vz) for set SENSOR and time  0.1781250E-01

      2895 -3.605193E-02 -2.074894E-01 -6.351644E+00

 displacements (vx,vy,vz) for set SENSOR and time  0.1796875E-01

      2895  3.461535E-02 -2.266597E-01 -6.417881E+00

 displacements (vx,vy,vz) for set SENSOR and time  0.1812500E-01

      2895  9.893029E-02 -2.273534E-01 -6.019453E+00

 displacements (vx,vy,vz) for set SENSOR and time  0.1828125E-01

      2895  1.491163E-01 -2.097521E-01 -5.217447E+00

 displacements (vx,vy,vz) for set SENSOR and time  0.1843750E-01

      2895  1.790146E-01 -1.764515E-01 -4.120017E+00

 displacements (vx,vy,vz) for set SENSOR and time  0.1859375E-01

      2895  1.848763E-01 -1.320250E-01 -2.863036E+00

 displacements (vx,vy,vz) for set SENSOR and time  0.1875000E-01

      2895  1.658695E-01 -8.226569E-02 -1.586340E+00

 displacements (vx,vy,vz) for set SENSOR and time  0.1890625E-01

      2895  1.242266E-01 -3.325666E-02 -4.106853E-01

 displacements (vx,vy,vz) for set SENSOR and time  0.1906250E-01

      2895  6.500092E-02  9.547394E-03  5.797319E-01

 displacements (vx,vy,vz) for set SENSOR and time  0.1921875E-01

      2895 -4.550833E-03  4.205096E-02  1.345805E+00

 displacements (vx,vy,vz) for set SENSOR and time  0.1937500E-01

      2895 -7.589140E-02  6.193343E-02  1.891905E+00

 displacements (vx,vy,vz) for set SENSOR and time  0.1953125E-01

      2895 -1.403140E-01  6.869900E-02  2.255394E+00

 displacements (vx,vy,vz) for set SENSOR and time  0.1968750E-01

      2895 -1.900923E-01  6.339589E-02  2.490570E+00

 displacements (vx,vy,vz) for set SENSOR and time  0.1984375E-01

      2895 -2.195059E-01  4.811288E-02  2.651542E+00

 displacements (vx,vy,vz) for set SENSOR and time  0.2000000E-01

      2895 -2.255915E-01  2.540342E-02  2.778559E+00

 displacements (vx,vy,vz) for set SENSOR and time  0.2015625E-01

      2895 -2.085047E-01 -2.211243E-03  2.891137E+00

 displacements (vx,vy,vz) for set SENSOR and time  0.2031250E-01

      2895 -1.714364E-01 -3.254671E-02  2.989395E+00

 displacements (vx,vy,vz) for set SENSOR and time  0.2046875E-01

      2895 -1.200960E-01 -6.382133E-02  3.062639E+00

 displacements (vx,vy,vz) for set SENSOR and time  0.2062500E-01

      2895 -6.184043E-02 -9.451256E-02  3.102223E+00

 displacements (vx,vy,vz) for set SENSOR and time  0.2078125E-01

      2895 -4.584300E-03 -1.230971E-01  3.114418E+00

 displacements (vx,vy,vz) for set SENSOR and time  0.2093750E-01

      2895  4.433953E-02 -1.478032E-01  3.128950E+00

 displacements (vx,vy,vz) for set SENSOR and time  0.2109375E-01

      2895  7.919678E-02 -1.664978E-01  3.199907E+00

 displacements (vx,vy,vz) for set SENSOR and time  0.2125000E-01

      2895  9.659619E-02 -1.767924E-01  3.397723E+00

 displacements (vx,vy,vz) for set SENSOR and time  0.2140625E-01

      2895  9.586057E-02 -1.763792E-01  3.793375E+00

 displacements (vx,vy,vz) for set SENSOR and time  0.2156250E-01

      2895  7.898601E-02 -1.635386E-01  4.438192E+00

 displacements (vx,vy,vz) for set SENSOR and time  0.2171875E-01

      2895  5.021677E-02 -1.376936E-01  5.344174E+00

 displacements (vx,vy,vz) for set SENSOR and time  0.2187500E-01

      2895  1.532068E-02 -9.985949E-02  6.470035E+00

 displacements (vx,vy,vz) for set SENSOR and time  0.2203125E-01

      2895 -1.931001E-02 -5.284647E-02  7.717253E+00

 displacements (vx,vy,vz) for set SENSOR and time  0.2218750E-01

      2895 -4.759093E-02 -1.121280E-03  8.938326E+00

 displacements (vx,vy,vz) for set SENSOR and time  0.2234375E-01

      2895 -6.457628E-02  4.968663E-02  9.956744E+00

 displacements (vx,vy,vz) for set SENSOR and time  0.2250000E-01

      2895 -6.708016E-02  9.356598E-02  1.059545E+01

 displacements (vx,vy,vz) for set SENSOR and time  0.2265625E-01

      2895 -5.402075E-02  1.250497E-01  1.070844E+01

 displacements (vx,vy,vz) for set SENSOR and time  0.2281250E-01

      2895 -2.646474E-02  1.401050E-01  1.020924E+01

 displacements (vx,vy,vz) for set SENSOR and time  0.2296875E-01

      2895  1.260807E-02  1.368063E-01  9.090288E+00

 displacements (vx,vy,vz) for set SENSOR and time  0.2312500E-01

      2895  5.876645E-02  1.156555E-01  7.428997E+00

 displacements (vx,vy,vz) for set SENSOR and time  0.2328125E-01

      2895  1.067401E-01  7.948677E-02  5.378957E+00

 displacements (vx,vy,vz) for set SENSOR and time  0.2343750E-01

      2895  1.510975E-01  3.298049E-02  3.147668E+00

 displacements (vx,vy,vz) for set SENSOR and time  0.2359375E-01

      2895  1.869066E-01 -1.810606E-02  9.649364E-01

 displacements (vx,vy,vz) for set SENSOR and time  0.2375000E-01

      2895  2.103037E-01 -6.783450E-02 -9.521208E-01

 displacements (vx,vy,vz) for set SENSOR and time  0.2390625E-01

      2895  2.189139E-01 -1.109323E-01 -2.430961E+00

 displacements (vx,vy,vz) for set SENSOR and time  0.2406250E-01

      2895  2.120828E-01 -1.434409E-01 -3.366691E+00

 displacements (vx,vy,vz) for set SENSOR and time  0.2421875E-01

      2895  1.909015E-01 -1.630717E-01 -3.732575E+00

 displacements (vx,vy,vz) for set SENSOR and time  0.2437500E-01

      2895  1.580260E-01 -1.692459E-01 -3.576852E+00

 displacements (vx,vy,vz) for set SENSOR and time  0.2453125E-01

      2895  1.173140E-01 -1.628671E-01 -3.007466E+00

 displacements (vx,vy,vz) for set SENSOR and time  0.2468750E-01

      2895  7.332359E-02 -1.459236E-01 -2.168522E+00

 displacements (vx,vy,vz) for set SENSOR and time  0.2484375E-01

      2895  3.073270E-02 -1.210373E-01 -1.213589E+00

 displacements (vx,vy,vz) for set SENSOR and time  0.2500000E-01

      2895 -6.248310E-03 -9.106650E-02 -2.810691E-01

 displacements (vx,vy,vz) for set SENSOR and time  0.2515625E-01

      2895 -3.439409E-02 -5.882893E-02  5.241131E-01

 displacements (vx,vy,vz) for set SENSOR and time  0.2531250E-01

      2895 -5.184235E-02 -2.696292E-02  1.140026E+00

 displacements (vx,vy,vz) for set SENSOR and time  0.2546875E-01

      2895 -5.827914E-02  2.104413E-03  1.548103E+00

 displacements (vx,vy,vz) for set SENSOR and time  0.2562500E-01

      2895 -5.490466E-02  2.614499E-02  1.765954E+00

 displacements (vx,vy,vz) for set SENSOR and time  0.2578125E-01

      2895 -4.418530E-02  4.314343E-02  1.835552E+00

 displacements (vx,vy,vz) for set SENSOR and time  0.2593750E-01

      2895 -2.943094E-02  5.138788E-02  1.810230E+00

 displacements (vx,vy,vz) for set SENSOR and time  0.2609375E-01

      2895 -1.426462E-02  4.965243E-02  1.743541E+00

 displacements (vx,vy,vz) for set SENSOR and time  0.2625000E-01

      2895 -2.068730E-03  3.744162E-02  1.681964E+00

 displacements (vx,vy,vz) for set SENSOR and time  0.2640625E-01

      2895  4.505095E-03  1.523149E-02  1.662040E+00

 displacements (vx,vy,vz) for set SENSOR and time  0.2656250E-01

      2895  3.888443E-03 -1.537594E-02  1.711135E+00

 displacements (vx,vy,vz) for set SENSOR and time  0.2671875E-01

      2895 -4.237472E-03 -5.165959E-02  1.850131E+00

 displacements (vx,vy,vz) for set SENSOR and time  0.2687500E-01

      2895 -1.897577E-02 -8.999056E-02  2.095982E+00

 displacements (vx,vy,vz) for set SENSOR and time  0.2703125E-01

      2895 -3.842766E-02 -1.262426E-01  2.462480E+00

 displacements (vx,vy,vz) for set SENSOR and time  0.2718750E-01

      2895 -6.003648E-02 -1.563450E-01  2.958408E+00

 displacements (vx,vy,vz) for set SENSOR and time  0.2734375E-01

      2895 -8.099486E-02 -1.768809E-01  3.583410E+00

 displacements (vx,vy,vz) for set SENSOR and time  0.2750000E-01

      2895 -9.864512E-02 -1.856151E-01  4.322883E+00

 displacements (vx,vy,vz) for set SENSOR and time  0.2765625E-01

      2895 -1.108135E-01 -1.818428E-01  5.143817E+00

 displacements (vx,vy,vz) for set SENSOR and time  0.2781250E-01

      2895 -1.160401E-01 -1.664894E-01  5.993507E+00

 displacements (vx,vy,vz) for set SENSOR and time  0.2796875E-01

      2895 -1.136906E-01 -1.419379E-01  6.802473E+00

 displacements (vx,vy,vz) for set SENSOR and time  0.2812500E-01

      2895 -1.039614E-01 -1.116225E-01  7.491881E+00

 displacements (vx,vy,vz) for set SENSOR and time  0.2828125E-01

      2895 -8.780143E-02 -7.947256E-02  7.984506E+00

 displacements (vx,vy,vz) for set SENSOR and time  0.2843750E-01

      2895 -6.678414E-02 -4.931665E-02  8.217255E+00

 displacements (vx,vy,vz) for set SENSOR and time  0.2859375E-01

      2895 -4.295437E-02 -2.436103E-02  8.152593E+00

 displacements (vx,vy,vz) for set SENSOR and time  0.2875000E-01

      2895 -1.866620E-02 -6.828470E-03  7.786295E+00

 displacements (vx,vy,vz) for set SENSOR and time  0.2890625E-01

      2895  3.586737E-03  2.197096E-03  7.149548E+00

 displacements (vx,vy,vz) for set SENSOR and time  0.2906250E-01

      2895  2.135584E-02  2.724050E-03  6.304668E+00

 displacements (vx,vy,vz) for set SENSOR and time  0.2921875E-01

      2895  3.244653E-02 -4.348380E-03  5.335056E+00

 displacements (vx,vy,vz) for set SENSOR and time  0.2937500E-01

      2895  3.515325E-02 -1.751367E-02  4.331356E+00

 displacements (vx,vy,vz) for set SENSOR and time  0.2953125E-01

      2895  2.850731E-02 -3.494611E-02  3.376607E+00

 displacements (vx,vy,vz) for set SENSOR and time  0.2968750E-01

      2895  1.250599E-02 -5.473238E-02  2.533456E+00

 displacements (vx,vy,vz) for set SENSOR and time  0.2984375E-01

      2895 -1.172352E-02 -7.501591E-02  1.836007E+00

 displacements (vx,vy,vz) for set SENSOR and time  0.3000000E-01

      2895 -4.187754E-02 -9.405859E-02  1.287813E+00

 displacements (vx,vy,vz) for set SENSOR and time  0.3015625E-01

      2895 -7.459078E-02 -1.102523E-01  8.661588E-01

 displacements (vx,vy,vz) for set SENSOR and time  0.3031250E-01

      2895 -1.057350E-01 -1.221273E-01  5.313518E-01

 displacements (vx,vy,vz) for set SENSOR and time  0.3046875E-01

      2895 -1.308899E-01 -1.283991E-01  2.386680E-01

 displacements (vx,vy,vz) for set SENSOR and time  0.3062500E-01

      2895 -1.459361E-01 -1.280765E-01 -4.989195E-02

 displacements (vx,vy,vz) for set SENSOR and time  0.3078125E-01

      2895 -1.476866E-01 -1.206226E-01 -3.567186E-01

 displacements (vx,vy,vz) for set SENSOR and time  0.3093750E-01

      2895 -1.344518E-01 -1.061326E-01 -6.844564E-01

 displacements (vx,vy,vz) for set SENSOR and time  0.3109375E-01

      2895 -1.064281E-01 -8.547172E-02 -1.017275E+00

 displacements (vx,vy,vz) for set SENSOR and time  0.3125000E-01

      2895 -6.582634E-02 -6.031595E-02 -1.326869E+00

 displacements (vx,vy,vz) for set SENSOR and time  0.3140625E-01

      2895 -1.668951E-02 -3.305308E-02 -1.581391E+00

 displacements (vx,vy,vz) for set SENSOR and time  0.3156250E-01

      2895  3.559226E-02 -6.532877E-03 -1.754841E+00

 displacements (vx,vy,vz) for set SENSOR and time  0.3171875E-01

      2895  8.500787E-02  1.630642E-02 -1.834422E+00

 displacements (vx,vy,vz) for set SENSOR and time  0.3187500E-01

      2895  1.257829E-01  3.287381E-02 -1.823945E+00

 displacements (vx,vy,vz) for set SENSOR and time  0.3203125E-01

      2895  1.532301E-01  4.134001E-02 -1.742379E+00

 displacements (vx,vy,vz) for set SENSOR and time  0.3218750E-01

      2895  1.644502E-01  4.094528E-02 -1.617938E+00

 displacements (vx,vy,vz) for set SENSOR and time  0.3234375E-01

      2895  1.587647E-01  3.213337E-02 -1.479188E+00

 displacements (vx,vy,vz) for set SENSOR and time  0.3250000E-01

      2895  1.378055E-01  1.648008E-02 -1.345454E+00

 displacements (vx,vy,vz) for set SENSOR and time  0.3265625E-01

      2895  1.052485E-01 -3.571995E-03 -1.219011E+00

 displacements (vx,vy,vz) for set SENSOR and time  0.3281250E-01

      2895  6.623678E-02 -2.511949E-02 -1.081150E+00

 displacements (vx,vy,vz) for set SENSOR and time  0.3296875E-01

      2895  2.659338E-02 -4.526349E-02 -8.933563E-01

 displacements (vx,vy,vz) for set SENSOR and time  0.3312500E-01

      2895 -8.045096E-03 -6.154274E-02 -6.036064E-01

 displacements (vx,vy,vz) for set SENSOR and time  0.3328125E-01

      2895 -3.303311E-02 -7.225503E-02 -1.566743E-01

 displacements (vx,vy,vz) for set SENSOR and time  0.3343750E-01

      2895 -4.533614E-02 -7.661595E-02  4.936424E-01

 displacements (vx,vy,vz) for set SENSOR and time  0.3359375E-01

      2895 -4.387935E-02 -7.474281E-02  1.372891E+00

 displacements (vx,vy,vz) for set SENSOR and time  0.3375000E-01

      2895 -2.958854E-02 -6.749000E-02  2.477360E+00

 displacements (vx,vy,vz) for set SENSOR and time  0.3390625E-01

      2895 -5.138698E-03 -5.619106E-02  3.770296E+00

 displacements (vx,vy,vz) for set SENSOR and time  0.3406250E-01

      2895  2.552973E-02 -4.237556E-02  5.183778E+00

 displacements (vx,vy,vz) for set SENSOR and time  0.3421875E-01

      2895  5.783637E-02 -2.752420E-02  6.625904E+00

 displacements (vx,vy,vz) for set SENSOR and time  0.3437500E-01

      2895  8.722560E-02 -1.290508E-02  7.991976E+00

 displacements (vx,vy,vz) for set SENSOR and time  0.3453125E-01

      2895  1.097733E-01  4.939237E-04  9.177622E+00

 displacements (vx,vy,vz) for set SENSOR and time  0.3468750E-01

      2895  1.226588E-01  1.195064E-02  1.009159E+01

 displacements (vx,vy,vz) for set SENSOR and time  0.3484375E-01

      2895  1.244541E-01  2.094625E-02  1.066608E+01

 displacements (vx,vy,vz) for set SENSOR and time  0.3500000E-01

      2895  1.152126E-01  2.709727E-02  1.086331E+01

 displacements (vx,vy,vz) for set SENSOR and time  0.3515625E-01

      2895  9.636793E-02  3.011752E-02  1.067745E+01

 displacements (vx,vy,vz) for set SENSOR and time  0.3531250E-01

      2895  7.047620E-02  2.982864E-02  1.013244E+01

 displacements (vx,vy,vz) for set SENSOR and time  0.3546875E-01

      2895  4.084391E-02  2.621501E-02  9.276471E+00

 displacements (vx,vy,vz) for set SENSOR and time  0.3562500E-01

      2895  1.109388E-02  1.949965E-02  8.174589E+00

 displacements (vx,vy,vz) for set SENSOR and time  0.3578125E-01

      2895 -1.528198E-02  1.020606E-02  6.900850E+00

 displacements (vx,vy,vz) for set SENSOR and time  0.3593750E-01

      2895 -3.533694E-02 -8.277334E-04  5.531223E+00

 displacements (vx,vy,vz) for set SENSOR and time  0.3609375E-01

      2895 -4.701041E-02 -1.250398E-02  4.138018E+00

 displacements (vx,vy,vz) for set SENSOR and time  0.3625000E-01

      2895 -4.936236E-02 -2.358920E-02  2.786045E+00

 displacements (vx,vy,vz) for set SENSOR and time  0.3640625E-01

      2895 -4.267609E-02 -3.288570E-02  1.530289E+00

 displacements (vx,vy,vz) for set SENSOR and time  0.3656250E-01

      2895 -2.841494E-02 -3.941242E-02  4.145973E-01

 displacements (vx,vy,vz) for set SENSOR and time  0.3671875E-01

      2895 -9.032071E-03 -4.255090E-02 -5.291985E-01

 displacements (vx,vy,vz) for set SENSOR and time  0.3687500E-01

      2895  1.235123E-02 -4.211948E-02 -1.282117E+00

 displacements (vx,vy,vz) for set SENSOR and time  0.3703125E-01

      2895  3.236525E-02 -3.835714E-02 -1.838947E+00

 displacements (vx,vy,vz) for set SENSOR and time  0.3718750E-01

      2895  4.785919E-02 -3.182272E-02 -2.209041E+00

 displacements (vx,vy,vz) for set SENSOR and time  0.3734375E-01

      2895  5.635360E-02 -2.323882E-02 -2.416542E+00

 displacements (vx,vy,vz) for set SENSOR and time  0.3750000E-01

      2895  5.641123E-02 -1.332540E-02 -2.499494E+00

 displacements (vx,vy,vz) for set SENSOR and time  0.3765625E-01

      2895  4.786574E-02 -2.670523E-03 -2.507394E+00

 displacements (vx,vy,vz) for set SENSOR and time  0.3781250E-01

      2895  3.186577E-02  8.325053E-03 -2.497015E+00

 displacements (vx,vy,vz) for set SENSOR and time  0.3796875E-01

      2895  1.071819E-02  1.941580E-02 -2.526677E+00

 displacements (vx,vy,vz) for set SENSOR and time  0.3812500E-01

      2895 -1.245249E-02  3.040528E-02 -2.649565E+00

 displacements (vx,vy,vz) for set SENSOR and time  0.3828125E-01

      2895 -3.418015E-02  4.100438E-02 -2.906939E+00

 displacements (vx,vy,vz) for set SENSOR and time  0.3843750E-01

      2895 -5.119429E-02  5.070677E-02 -3.322260E+00

 displacements (vx,vy,vz) for set SENSOR and time  0.3859375E-01

      2895 -6.093102E-02  5.873383E-02 -3.897160E+00

 displacements (vx,vy,vz) for set SENSOR and time  0.3875000E-01

      2895 -6.193200E-02  6.408501E-02 -4.609965E+00

 displacements (vx,vy,vz) for set SENSOR and time  0.3890625E-01

      2895 -5.406349E-02  6.570107E-02 -5.417070E+00

 displacements (vx,vy,vz) for set SENSOR and time  0.3906250E-01

      2895 -3.851799E-02  6.271428E-02 -6.257052E+00