
 displacements (vx,vy,vz) for set SENSOR and time  0.3906250E-04

      7572 -8.583212E-03 -8.508230E-03  1.598639E-02

 displacements (vx,vy,vz) for set SENSOR and time  0.7812500E-04

      7572 -2.894236E-02 -3.307354E-02  4.777167E-02

 displacements (vx,vy,vz) for set SENSOR and time  0.1171875E-03

      7572  3.262666E-03 -1.010062E-02 -1.503039E-02

 displacements (vx,vy,vz) for set SENSOR and time  0.1562500E-03

      7572  3.049094E-02  3.053159E-02 -2.940581E-02

 displacements (vx,vy,vz) for set SENSOR and time  0.1953125E-03

      7572 -7.825081E-03  2.026512E-02  3.987604E-02

 displacements (vx,vy,vz) for set SENSOR and time  0.2343750E-03

      7572 -3.600882E-02 -2.653019E-02 -1.285359E-02

 displacements (vx,vy,vz) for set SENSOR and time  0.2734375E-03

      7572  1.678678E-02 -3.346466E-02 -1.005112E-01

 displacements (vx,vy,vz) for set SENSOR and time  0.3125000E-03

      7572  5.546603E-02  1.538317E-02  9.411211E-02

 displacements (vx,vy,vz) for set SENSOR and time  0.3515625E-03

      7572 -2.625020E-02  4.658093E-02  2.922276E-01

 displacements (vx,vy,vz) for set SENSOR and time  0.3906250E-03

      7572 -1.126521E-01  9.299081E-03 -1.551122E-01

 displacements (vx,vy,vz) for set SENSOR and time  0.4296875E-03

      7572 -9.395342E-03 -4.656560E-02 -8.337829E-01

 displacements (vx,vy,vz) for set SENSOR and time  0.4687500E-03

      7572  2.011985E-01 -4.585124E-02 -3.530413E-01

 displacements (vx,vy,vz) for set SENSOR and time  0.5078125E-03

      7572  2.014910E-01  3.414169E-03  1.328180E+00

 displacements (vx,vy,vz) for set SENSOR and time  0.5468750E-03

      7572 -9.379584E-02  3.388454E-02  2.072400E+00

 displacements (vx,vy,vz) for set SENSOR and time  0.5859375E-03

      7572 -3.525954E-01  2.696113E-02  4.487194E-01

 displacements (vx,vy,vz) for set SENSOR and time  0.6250000E-03

      7572 -2.706645E-01  3.065017E-02 -1.798715E+00

 displacements (vx,vy,vz) for set SENSOR and time  0.6640625E-03

      7572 -8.571165E-03  6.730696E-02 -2.120941E+00

 displacements (vx,vy,vz) for set SENSOR and time  0.7031250E-03

      7572  5.955376E-02  8.761322E-02 -1.129721E+00

 displacements (vx,vy,vz) for set SENSOR and time  0.7421875E-03

      7572 -7.498786E-02  4.376694E-02 -1.637038E+00

 displacements (vx,vy,vz) for set SENSOR and time  0.7812500E-03

      7572 -3.225264E-02 -4.172544E-02 -3.793620E+00

 displacements (vx,vy,vz) for set SENSOR and time  0.8203125E-03

      7572  3.713115E-01 -1.221843E-01 -4.036246E+00

 displacements (vx,vy,vz) for set SENSOR and time  0.8593750E-03

      7572  7.974027E-01 -2.024069E-01 -1.767556E-02

 displacements (vx,vy,vz) for set SENSOR and time  0.8984375E-03

      7572  7.994058E-01 -3.049407E-01  5.708408E+00

 displacements (vx,vy,vz) for set SENSOR and time  0.9375000E-03

      7572  3.761318E-01 -3.716135E-01  8.724378E+00

 displacements (vx,vy,vz) for set SENSOR and time  0.9765625E-03

      7572 -8.382457E-02 -2.757284E-01  7.926650E+00

 displacements (vx,vy,vz) for set SENSOR and time  0.1015625E-02

      7572 -3.041741E-01  2.265355E-02  5.731180E+00

 displacements (vx,vy,vz) for set SENSOR and time  0.1054688E-02

      7572 -3.488579E-01  3.703979E-01  4.229813E+00

 displacements (vx,vy,vz) for set SENSOR and time  0.1093750E-02

      7572 -3.769816E-01  5.331448E-01  3.384070E+00

 displacements (vx,vy,vz) for set SENSOR and time  0.1132813E-02

      7572 -3.981193E-01  4.284768E-01  2.609636E+00

 displacements (vx,vy,vz) for set SENSOR and time  0.1171875E-02

      7572 -3.514070E-01  2.116460E-01  1.895395E+00

 displacements (vx,vy,vz) for set SENSOR and time  0.1210938E-02

      7572 -2.696018E-01  9.959706E-02  1.038024E+00

 displacements (vx,vy,vz) for set SENSOR and time  0.1250000E-02

      7572 -2.374353E-01  1.306077E-01 -4.554445E-01

 displacements (vx,vy,vz) for set SENSOR and time  0.1289063E-02

      7572 -2.629859E-01  1.473932E-01 -2.203739E+00

 displacements (vx,vy,vz) for set SENSOR and time  0.1328125E-02

      7572 -2.999949E-01  2.626325E-02 -3.183447E+00

 displacements (vx,vy,vz) for set SENSOR and time  0.1367188E-02

      7572 -3.504668E-01 -1.404844E-01 -3.612920E+00

 displacements (vx,vy,vz) for set SENSOR and time  0.1406250E-02

      7572 -4.366225E-01 -1.560947E-01 -5.042748E+00

 displacements (vx,vy,vz) for set SENSOR and time  0.1445313E-02

      7572 -4.935758E-01  1.293540E-02 -7.785305E+00

 displacements (vx,vy,vz) for set SENSOR and time  0.1484375E-02

      7572 -4.069611E-01  1.766805E-01 -9.779487E+00

 displacements (vx,vy,vz) for set SENSOR and time  0.1523438E-02

      7572 -1.810496E-01  1.631242E-01 -9.221190E+00

 displacements (vx,vy,vz) for set SENSOR and time  0.1562500E-02

      7572  2.434012E-02  3.333473E-02 -7.086593E+00

 displacements (vx,vy,vz) for set SENSOR and time  0.1601563E-02

      7572  7.406995E-02 -2.774109E-02 -5.576670E+00

 displacements (vx,vy,vz) for set SENSOR and time  0.1640625E-02

      7572  1.007426E-02  2.066393E-02 -5.037035E+00

 displacements (vx,vy,vz) for set SENSOR and time  0.1679688E-02

      7572 -3.109329E-02  4.171771E-02 -4.206783E+00

 displacements (vx,vy,vz) for set SENSOR and time  0.1718750E-02

      7572 -2.513338E-04 -4.124640E-02 -2.942934E+00

 displacements (vx,vy,vz) for set SENSOR and time  0.1757813E-02

      7572  3.703072E-02 -1.125198E-01 -2.577068E+00

 displacements (vx,vy,vz) for set SENSOR and time  0.1796875E-02

      7572  2.597416E-02 -5.078517E-02 -3.371932E+00

 displacements (vx,vy,vz) for set SENSOR and time  0.1835937E-02

      7572 -1.014118E-02  5.178789E-02 -3.595674E+00

 displacements (vx,vy,vz) for set SENSOR and time  0.1875000E-02

      7572 -3.767105E-02 -6.891951E-03 -1.990523E+00

 displacements (vx,vy,vz) for set SENSOR and time  0.1914062E-02

      7572 -7.288309E-02 -2.403661E-01  2.833042E-01

 displacements (vx,vy,vz) for set SENSOR and time  0.1953125E-02

      7572 -1.374860E-01 -4.165346E-01  1.249297E+00

 displacements (vx,vy,vz) for set SENSOR and time  0.1992187E-02

      7572 -2.069213E-01 -3.437194E-01  5.871054E-01

 displacements (vx,vy,vz) for set SENSOR and time  0.2031250E-02

      7572 -2.514467E-01 -1.156683E-01 -7.068382E-01

 displacements (vx,vy,vz) for set SENSOR and time  0.2070312E-02

      7572 -2.906000E-01  6.246394E-03 -2.328204E+00

 displacements (vx,vy,vz) for set SENSOR and time  0.2109375E-02

      7572 -3.465316E-01 -9.902475E-02 -4.844356E+00

 displacements (vx,vy,vz) for set SENSOR and time  0.2148437E-02

      7572 -3.657409E-01 -3.075164E-01 -8.072596E+00

 displacements (vx,vy,vz) for set SENSOR and time  0.2187500E-02

      7572 -2.639702E-01 -4.345689E-01 -1.068682E+01

 displacements (vx,vy,vz) for set SENSOR and time  0.2226562E-02

      7572 -5.868211E-02 -4.360187E-01 -1.179468E+01

 displacements (vx,vy,vz) for set SENSOR and time  0.2265625E-02

      7572  1.180079E-01 -3.987095E-01 -1.195978E+01

 displacements (vx,vy,vz) for set SENSOR and time  0.2304687E-02

      7572  1.769606E-01 -3.901346E-01 -1.220779E+01

 displacements (vx,vy,vz) for set SENSOR and time  0.2343750E-02

      7572  1.787582E-01 -3.720759E-01 -1.271146E+01

 displacements (vx,vy,vz) for set SENSOR and time  0.2382812E-02

      7572  2.208401E-01 -2.555337E-01 -1.297211E+01

 displacements (vx,vy,vz) for set SENSOR and time  0.2421875E-02

      7572  2.710275E-01 -9.282616E-03 -1.279933E+01

 displacements (vx,vy,vz) for set SENSOR and time  0.2460937E-02

      7572  2.152519E-01  2.929196E-01 -1.248102E+01

 displacements (vx,vy,vz) for set SENSOR and time  0.2500000E-02

      7572  6.545746E-02  5.223106E-01 -1.213388E+01

 displacements (vx,vy,vz) for set SENSOR and time  0.2539062E-02

      7572  5.243492E-03  5.926166E-01 -1.139822E+01

 displacements (vx,vy,vz) for set SENSOR and time  0.2578125E-02

      7572  1.700084E-01  5.205918E-01 -9.908338E+00

 displacements (vx,vy,vz) for set SENSOR and time  0.2617187E-02

      7572  4.593323E-01  3.996327E-01 -7.881479E+00

 displacements (vx,vy,vz) for set SENSOR and time  0.2656250E-02

      7572  6.530577E-01  3.161470E-01 -6.114031E+00

 displacements (vx,vy,vz) for set SENSOR and time  0.2695312E-02

      7572  6.724008E-01  2.896442E-01 -5.316062E+00

 displacements (vx,vy,vz) for set SENSOR and time  0.2734375E-02

      7572  6.291586E-01  2.868331E-01 -5.376022E+00

 displacements (vx,vy,vz) for set SENSOR and time  0.2773437E-02

      7572  6.245808E-01  2.819955E-01 -5.395082E+00

 displacements (vx,vy,vz) for set SENSOR and time  0.2812500E-02

      7572  6.085122E-01  2.923425E-01 -4.646177E+00

 displacements (vx,vy,vz) for set SENSOR and time  0.2851562E-02

      7572  4.865624E-01  3.477084E-01 -3.382105E+00

 displacements (vx,vy,vz) for set SENSOR and time  0.2890625E-02

      7572  2.898564E-01  4.290857E-01 -2.371306E+00

 displacements (vx,vy,vz) for set SENSOR and time  0.2929687E-02

      7572  1.570917E-01  4.576209E-01 -1.738383E+00

 displacements (vx,vy,vz) for set SENSOR and time  0.2968750E-02

      7572  1.715482E-01  3.700084E-01 -8.132850E-01

 displacements (vx,vy,vz) for set SENSOR and time  0.3007812E-02

      7572  2.821926E-01  2.035622E-01  7.297497E-01

 displacements (vx,vy,vz) for set SENSOR and time  0.3046875E-02

      7572  3.828255E-01  7.329017E-02  2.183005E+00

 displacements (vx,vy,vz) for set SENSOR and time  0.3085937E-02

      7572  4.123020E-01  4.552909E-02  2.702150E+00

 displacements (vx,vy,vz) for set SENSOR and time  0.3125000E-02

      7572  3.670434E-01  6.356003E-02  2.492576E+00

 displacements (vx,vy,vz) for set SENSOR and time  0.3164062E-02

      7572  2.698371E-01  3.269705E-02  2.523373E+00

 displacements (vx,vy,vz) for set SENSOR and time  0.3203125E-02

      7572  1.632841E-01 -4.528156E-02  3.228823E+00

 displacements (vx,vy,vz) for set SENSOR and time  0.3242187E-02

      7572  1.073392E-01 -7.921718E-02  4.068000E+00

 displacements (vx,vy,vz) for set SENSOR and time  0.3281250E-02

      7572  1.423678E-01 -2.931215E-02  4.382418E+00

 displacements (vx,vy,vz) for set SENSOR and time  0.3320312E-02

      7572  2.508375E-01  2.601855E-02  4.181041E+00

 displacements (vx,vy,vz) for set SENSOR and time  0.3359375E-02

      7572  3.713825E-01 -6.071393E-04  3.936641E+00

 displacements (vx,vy,vz) for set SENSOR and time  0.3398437E-02

      7572  4.506397E-01 -7.947548E-02  4.004390E+00

 displacements (vx,vy,vz) for set SENSOR and time  0.3437500E-02

      7572  4.729747E-01 -1.033275E-01  4.436474E+00

 displacements (vx,vy,vz) for set SENSOR and time  0.3476562E-02

      7572  4.478571E-01 -2.881236E-02  5.070977E+00

 displacements (vx,vy,vz) for set SENSOR and time  0.3515625E-02

      7572  3.878984E-01  8.074659E-02  5.591670E+00

 displacements (vx,vy,vz) for set SENSOR and time  0.3554687E-02

      7572  3.062177E-01  1.476141E-01  5.705568E+00

 displacements (vx,vy,vz) for set SENSOR and time  0.3593750E-02

      7572  2.247582E-01  1.549480E-01  5.440349E+00

 displacements (vx,vy,vz) for set SENSOR and time  0.3632812E-02

      7572  1.717337E-01  1.201550E-01  5.124401E+00

 displacements (vx,vy,vz) for set SENSOR and time  0.3671875E-02

      7572  1.648325E-01  5.393995E-02  4.984149E+00

 displacements (vx,vy,vz) for set SENSOR and time  0.3710937E-02

      7572  1.980513E-01 -1.869777E-02  4.953310E+00

 displacements (vx,vy,vz) for set SENSOR and time  0.3750000E-02

      7572  2.485629E-01 -4.085281E-02  4.950058E+00

 displacements (vx,vy,vz) for set SENSOR and time  0.3789062E-02

      7572  2.956090E-01  2.193572E-02  5.067877E+00

 displacements (vx,vy,vz) for set SENSOR and time  0.3828125E-02

      7572  3.274853E-01  1.268670E-01  5.343954E+00

 displacements (vx,vy,vz) for set SENSOR and time  0.3867187E-02

      7572  3.344682E-01  1.970729E-01  5.618028E+00

 displacements (vx,vy,vz) for set SENSOR and time  0.3906250E-02

      7572  3.148379E-01  2.125994E-01  5.820351E+00

 displacements (vx,vy,vz) for set SENSOR and time  0.3945312E-02

      7572  2.981252E-01  2.183657E-01  6.098459E+00

 displacements (vx,vy,vz) for set SENSOR and time  0.3984375E-02

      7572  3.382174E-01  2.427947E-01  6.370552E+00

 displacements (vx,vy,vz) for set SENSOR and time  0.4023437E-02

      7572  4.505551E-01  2.526567E-01  6.077080E+00

 displacements (vx,vy,vz) for set SENSOR and time  0.4062500E-02

      7572  5.641512E-01  2.058326E-01  4.873849E+00

 displacements (vx,vy,vz) for set SENSOR and time  0.4101562E-02

      7572  5.773031E-01  1.162066E-01  3.442923E+00

 displacements (vx,vy,vz) for set SENSOR and time  0.4140625E-02

      7572  4.726300E-01  3.954403E-02  3.068106E+00

 displacements (vx,vy,vz) for set SENSOR and time  0.4179687E-02

      7572  3.408941E-01  1.117417E-02  4.312550E+00

 displacements (vx,vy,vz) for set SENSOR and time  0.4218750E-02

      7572  2.703965E-01  2.093650E-02  6.519503E+00

 displacements (vx,vy,vz) for set SENSOR and time  0.4257812E-02

      7572  2.489940E-01  4.141263E-02  8.697438E+00

 displacements (vx,vy,vz) for set SENSOR and time  0.4296875E-02

      7572  2.107770E-01  5.969679E-02  1.043898E+01

 displacements (vx,vy,vz) for set SENSOR and time  0.4335937E-02

      7572  1.483721E-01  8.079756E-02  1.176950E+01

 displacements (vx,vy,vz) for set SENSOR and time  0.4375000E-02

      7572  1.232570E-01  1.125887E-01  1.257809E+01

 displacements (vx,vy,vz) for set SENSOR and time  0.4414062E-02

      7572  1.720128E-01  1.501582E-01  1.266933E+01

 displacements (vx,vy,vz) for set SENSOR and time  0.4453125E-02

      7572  2.589264E-01  1.719663E-01  1.217346E+01

 displacements (vx,vy,vz) for set SENSOR and time  0.4492187E-02

      7572  3.323201E-01  1.566035E-01  1.147185E+01

 displacements (vx,vy,vz) for set SENSOR and time  0.4531250E-02

      7572  3.760374E-01  1.068800E-01  1.077208E+01

 displacements (vx,vy,vz) for set SENSOR and time  0.4570312E-02

      7572  3.823379E-01  4.759168E-02  1.009277E+01

 displacements (vx,vy,vz) for set SENSOR and time  0.4609375E-02

      7572  3.249921E-01 -6.473619E-03  9.612176E+00

 displacements (vx,vy,vz) for set SENSOR and time  0.4648437E-02

      7572  2.042147E-01 -6.580196E-02  9.639364E+00

 displacements (vx,vy,vz) for set SENSOR and time  0.4687500E-02

      7572  8.578096E-02 -1.368101E-01  1.015421E+01

 displacements (vx,vy,vz) for set SENSOR and time  0.4726562E-02

      7572  4.270842E-02 -1.939074E-01  1.069810E+01

 displacements (vx,vy,vz) for set SENSOR and time  0.4765625E-02

      7572  7.101813E-02 -2.066452E-01  1.089076E+01

 displacements (vx,vy,vz) for set SENSOR and time  0.4804687E-02

      7572  1.103889E-01 -1.883982E-01  1.083426E+01

 displacements (vx,vy,vz) for set SENSOR and time  0.4843750E-02

      7572  1.381115E-01 -1.870340E-01  1.081785E+01

 displacements (vx,vy,vz) for set SENSOR and time  0.4882812E-02

      7572  1.854245E-01 -2.205022E-01  1.078177E+01

 displacements (vx,vy,vz) for set SENSOR and time  0.4921875E-02

      7572  2.550915E-01 -2.507219E-01  1.030525E+01

 displacements (vx,vy,vz) for set SENSOR and time  0.4960937E-02

      7572  2.872827E-01 -2.398460E-01  9.106895E+00

 displacements (vx,vy,vz) for set SENSOR and time  0.5000000E-02

      7572  2.442876E-01 -2.108114E-01  7.416026E+00

 displacements (vx,vy,vz) for set SENSOR and time  0.5039062E-02

      7572  1.835860E-01 -2.244552E-01  5.832857E+00

 displacements (vx,vy,vz) for set SENSOR and time  0.5078125E-02

      7572  1.942848E-01 -3.040301E-01  4.874395E+00

 displacements (vx,vy,vz) for set SENSOR and time  0.5117187E-02

      7572  2.818599E-01 -4.088814E-01  4.616913E+00

 displacements (vx,vy,vz) for set SENSOR and time  0.5156250E-02

      7572  3.684360E-01 -4.857426E-01  4.705240E+00

 displacements (vx,vy,vz) for set SENSOR and time  0.5195312E-02

      7572  4.034907E-01 -5.241958E-01  4.714162E+00

 displacements (vx,vy,vz) for set SENSOR and time  0.5234375E-02

      7572  4.229825E-01 -5.509621E-01  4.528430E+00

 displacements (vx,vy,vz) for set SENSOR and time  0.5273437E-02

      7572  4.833735E-01 -5.840092E-01  4.349842E+00

 displacements (vx,vy,vz) for set SENSOR and time  0.5312500E-02

      7572  5.777210E-01 -6.079153E-01  4.359069E+00

 displacements (vx,vy,vz) for set SENSOR and time  0.5351562E-02

      7572  6.466011E-01 -5.928417E-01  4.499381E+00

 displacements (vx,vy,vz) for set SENSOR and time  0.5390625E-02

      7572  6.500713E-01 -5.296616E-01  4.653954E+00

 displacements (vx,vy,vz) for set SENSOR and time  0.5429687E-02

      7572  5.990644E-01 -4.453055E-01  4.894710E+00

 displacements (vx,vy,vz) for set SENSOR and time  0.5468750E-02

      7572  5.258950E-01 -3.846880E-01  5.383985E+00

 displacements (vx,vy,vz) for set SENSOR and time  0.5507812E-02

      7572  4.526055E-01 -3.737851E-01  6.062414E+00

 displacements (vx,vy,vz) for set SENSOR and time  0.5546875E-02

      7572  3.900282E-01 -3.969750E-01  6.597804E+00

 displacements (vx,vy,vz) for set SENSOR and time  0.5585937E-02

      7572  3.452131E-01 -4.122078E-01  6.693044E+00

 displacements (vx,vy,vz) for set SENSOR and time  0.5625000E-02

      7572  3.188523E-01 -3.894577E-01  6.358517E+00

 displacements (vx,vy,vz) for set SENSOR and time  0.5664062E-02

      7572  3.047185E-01 -3.319520E-01  5.848085E+00

 displacements (vx,vy,vz) for set SENSOR and time  0.5703125E-02

      7572  2.975811E-01 -2.618120E-01  5.410737E+00

 displacements (vx,vy,vz) for set SENSOR and time  0.5742187E-02

      7572  2.946570E-01 -1.944521E-01  5.166950E+00

 displacements (vx,vy,vz) for set SENSOR and time  0.5781250E-02

      7572  2.858801E-01 -1.327862E-01  5.175285E+00

 displacements (vx,vy,vz) for set SENSOR and time  0.5820312E-02

      7572  2.520932E-01 -8.011402E-02  5.514753E+00

 displacements (vx,vy,vz) for set SENSOR and time  0.5859375E-02

      7572  1.813835E-01 -4.888519E-02  6.227059E+00

 displacements (vx,vy,vz) for set SENSOR and time  0.5898437E-02

      7572  8.389785E-02 -5.469315E-02  7.162065E+00

 displacements (vx,vy,vz) for set SENSOR and time  0.5937500E-02

      7572 -1.569160E-02 -1.036440E-01  7.944806E+00

 displacements (vx,vy,vz) for set SENSOR and time  0.5976562E-02

      7572 -9.821313E-02 -1.839339E-01  8.217172E+00

 displacements (vx,vy,vz) for set SENSOR and time  0.6015625E-02

      7572 -1.576890E-01 -2.683500E-01  7.973346E+00

 displacements (vx,vy,vz) for set SENSOR and time  0.6054687E-02

      7572 -1.935595E-01 -3.299931E-01  7.591943E+00

 displacements (vx,vy,vz) for set SENSOR and time  0.6093750E-02

      7572 -2.064793E-01 -3.605646E-01  7.477189E+00

 displacements (vx,vy,vz) for set SENSOR and time  0.6132812E-02

      7572 -2.054067E-01 -3.703323E-01  7.741384E+00

 displacements (vx,vy,vz) for set SENSOR and time  0.6171875E-02

      7572 -2.092649E-01 -3.671555E-01  8.313875E+00

 displacements (vx,vy,vz) for set SENSOR and time  0.6210937E-02

      7572 -2.305980E-01 -3.434816E-01  9.232928E+00

 displacements (vx,vy,vz) for set SENSOR and time  0.6250000E-02

      7572 -2.585153E-01 -2.935538E-01  1.061345E+01

 displacements (vx,vy,vz) for set SENSOR and time  0.6289062E-02

      7572 -2.671656E-01 -2.364592E-01  1.233370E+01

 displacements (vx,vy,vz) for set SENSOR and time  0.6328125E-02

      7572 -2.437528E-01 -2.040806E-01  1.397816E+01

 displacements (vx,vy,vz) for set SENSOR and time  0.6367187E-02

      7572 -2.001899E-01 -2.022613E-01  1.518617E+01

 displacements (vx,vy,vz) for set SENSOR and time  0.6406250E-02

      7572 -1.527969E-01 -1.994648E-01  1.590872E+01

 displacements (vx,vy,vz) for set SENSOR and time  0.6445312E-02

      7572 -1.004481E-01 -1.643707E-01  1.623750E+01

 displacements (vx,vy,vz) for set SENSOR and time  0.6484375E-02

      7572 -3.406522E-02 -1.042657E-01  1.616180E+01

 displacements (vx,vy,vz) for set SENSOR and time  0.6523437E-02

      7572  3.890605E-02 -5.315147E-02  1.566551E+01

 displacements (vx,vy,vz) for set SENSOR and time  0.6562500E-02

      7572  9.771844E-02 -2.810629E-02  1.493562E+01

 displacements (vx,vy,vz) for set SENSOR and time  0.6601562E-02

      7572  1.396320E-01 -1.281999E-02  1.424417E+01

 displacements (vx,vy,vz) for set SENSOR and time  0.6640625E-02

      7572  1.909903E-01  1.565862E-02  1.364847E+01

 displacements (vx,vy,vz) for set SENSOR and time  0.6679687E-02

      7572  2.743634E-01  5.772231E-02  1.300388E+01

 displacements (vx,vy,vz) for set SENSOR and time  0.6718750E-02

      7572  3.740338E-01  9.280796E-02  1.227558E+01

 displacements (vx,vy,vz) for set SENSOR and time  0.6757812E-02

      7572  4.482743E-01  9.899881E-02  1.163615E+01

 displacements (vx,vy,vz) for set SENSOR and time  0.6796875E-02

      7572  4.711625E-01  6.482499E-02  1.120141E+01

 displacements (vx,vy,vz) for set SENSOR and time  0.6835937E-02

      7572  4.482876E-01 -8.684866E-03  1.086665E+01

 displacements (vx,vy,vz) for set SENSOR and time  0.6875000E-02

      7572  3.949131E-01 -1.069144E-01  1.053102E+01

 displacements (vx,vy,vz) for set SENSOR and time  0.6914062E-02

      7572  3.186113E-01 -2.053616E-01  1.034347E+01

 displacements (vx,vy,vz) for set SENSOR and time  0.6953125E-02

      7572  2.300669E-01 -2.825538E-01  1.055556E+01

 displacements (vx,vy,vz) for set SENSOR and time  0.6992187E-02

      7572  1.540835E-01 -3.295103E-01  1.118211E+01

 displacements (vx,vy,vz) for set SENSOR and time  0.7031250E-02

      7572  1.144489E-01 -3.434449E-01  1.195314E+01

 displacements (vx,vy,vz) for set SENSOR and time  0.7070312E-02

      7572  1.129650E-01 -3.176157E-01  1.259693E+01

 displacements (vx,vy,vz) for set SENSOR and time  0.7109375E-02

      7572  1.334708E-01 -2.472364E-01  1.306341E+01

 displacements (vx,vy,vz) for set SENSOR and time  0.7148437E-02

      7572  1.614853E-01 -1.460151E-01  1.346451E+01

 displacements (vx,vy,vz) for set SENSOR and time  0.7187500E-02

      7572  1.896892E-01 -4.821425E-02  1.389326E+01

 displacements (vx,vy,vz) for set SENSOR and time  0.7226562E-02

      7572  2.100534E-01  1.111364E-02  1.433695E+01

 displacements (vx,vy,vz) for set SENSOR and time  0.7265625E-02

      7572  2.174610E-01  1.704282E-02  1.470912E+01

 displacements (vx,vy,vz) for set SENSOR and time  0.7304687E-02

      7572  2.247802E-01 -2.200771E-02  1.493169E+01

 displacements (vx,vy,vz) for set SENSOR and time  0.7343750E-02

      7572  2.608840E-01 -8.480950E-02  1.500853E+01

 displacements (vx,vy,vz) for set SENSOR and time  0.7382812E-02

      7572  3.437949E-01 -1.489557E-01  1.502501E+01

 displacements (vx,vy,vz) for set SENSOR and time  0.7421875E-02

      7572  4.603659E-01 -1.994234E-01  1.505890E+01

 displacements (vx,vy,vz) for set SENSOR and time  0.7460938E-02

      7572  5.789495E-01 -2.331687E-01  1.510965E+01

 displacements (vx,vy,vz) for set SENSOR and time  0.7500000E-02

      7572  6.790976E-01 -2.553939E-01  1.513867E+01

 displacements (vx,vy,vz) for set SENSOR and time  0.7539063E-02

      7572  7.639737E-01 -2.693577E-01  1.513191E+01

 displacements (vx,vy,vz) for set SENSOR and time  0.7578125E-02

      7572  8.469657E-01 -2.719930E-01  1.505419E+01

 displacements (vx,vy,vz) for set SENSOR and time  0.7617188E-02

      7572  9.323064E-01 -2.609163E-01  1.477191E+01

 displacements (vx,vy,vz) for set SENSOR and time  0.7656250E-02

      7572  1.008137E+00 -2.411766E-01  1.412260E+01

 displacements (vx,vy,vz) for set SENSOR and time  0.7695313E-02

      7572  1.054098E+00 -2.212345E-01  1.308984E+01

 displacements (vx,vy,vz) for set SENSOR and time  0.7734375E-02

      7572  1.056499E+00 -2.065357E-01  1.185228E+01

 displacements (vx,vy,vz) for set SENSOR and time  0.7773438E-02

      7572  1.021048E+00 -2.023115E-01  1.064740E+01

 displacements (vx,vy,vz) for set SENSOR and time  0.7812500E-02

      7572  9.720121E-01 -2.178237E-01  9.645086E+00

 displacements (vx,vy,vz) for set SENSOR and time  0.7851563E-02

      7572  9.355760E-01 -2.580461E-01  8.949509E+00

 displacements (vx,vy,vz) for set SENSOR and time  0.7890625E-02

      7572  9.217978E-01 -3.116187E-01  8.617426E+00

 displacements (vx,vy,vz) for set SENSOR and time  0.7929688E-02

      7572  9.225708E-01 -3.574250E-01  8.612776E+00

 displacements (vx,vy,vz) for set SENSOR and time  0.7968750E-02

      7572  9.249172E-01 -3.866707E-01  8.809472E+00

 displacements (vx,vy,vz) for set SENSOR and time  0.8007813E-02

      7572  9.225082E-01 -4.095817E-01  9.104053E+00

 displacements (vx,vy,vz) for set SENSOR and time  0.8046875E-02

      7572  9.144517E-01 -4.346475E-01  9.485962E+00

 displacements (vx,vy,vz) for set SENSOR and time  0.8085938E-02

      7572  8.979007E-01 -4.501861E-01  9.959632E+00

 displacements (vx,vy,vz) for set SENSOR and time  0.8125000E-02

      7572  8.661951E-01 -4.371540E-01  1.047016E+01

 displacements (vx,vy,vz) for set SENSOR and time  0.8164063E-02

      7572  8.145739E-01 -3.958994E-01  1.097617E+01

 displacements (vx,vy,vz) for set SENSOR and time  0.8203125E-02

      7572  7.464731E-01 -3.477923E-01  1.152366E+01

 displacements (vx,vy,vz) for set SENSOR and time  0.8242188E-02

      7572  6.736552E-01 -3.096292E-01  1.213582E+01

 displacements (vx,vy,vz) for set SENSOR and time  0.8281250E-02

      7572  6.093388E-01 -2.782832E-01  1.266806E+01

 displacements (vx,vy,vz) for set SENSOR and time  0.8320313E-02

      7572  5.599070E-01 -2.458753E-01  1.290920E+01

 displacements (vx,vy,vz) for set SENSOR and time  0.8359375E-02

      7572  5.231390E-01 -2.200481E-01  1.284695E+01

 displacements (vx,vy,vz) for set SENSOR and time  0.8398438E-02

      7572  4.948602E-01 -2.187283E-01  1.272133E+01

 displacements (vx,vy,vz) for set SENSOR and time  0.8437500E-02

      7572  4.758406E-01 -2.479054E-01  1.276586E+01

 displacements (vx,vy,vz) for set SENSOR and time  0.8476563E-02

      7572  4.700227E-01 -2.936208E-01  1.297509E+01

 displacements (vx,vy,vz) for set SENSOR and time  0.8515625E-02

      7572  4.767058E-01 -3.363994E-01  1.317131E+01

 displacements (vx,vy,vz) for set SENSOR and time  0.8554688E-02

      7572  4.874131E-01 -3.673382E-01  1.321985E+01

 displacements (vx,vy,vz) for set SENSOR and time  0.8593750E-02

      7572  4.911135E-01 -3.894885E-01  1.311352E+01

 displacements (vx,vy,vz) for set SENSOR and time  0.8632813E-02

      7572  4.808654E-01 -4.100934E-01  1.291128E+01

 displacements (vx,vy,vz) for set SENSOR and time  0.8671875E-02

      7572  4.564558E-01 -4.344885E-01  1.268215E+01

 displacements (vx,vy,vz) for set SENSOR and time  0.8710938E-02

      7572  4.251563E-01 -4.627765E-01  1.248638E+01

 displacements (vx,vy,vz) for set SENSOR and time  0.8750000E-02

      7572  4.013521E-01 -4.881671E-01  1.234425E+01

 displacements (vx,vy,vz) for set SENSOR and time  0.8789063E-02

      7572  4.002837E-01 -5.007754E-01  1.223604E+01

 displacements (vx,vy,vz) for set SENSOR and time  0.8828125E-02

      7572  4.268711E-01 -4.963212E-01  1.217910E+01

 displacements (vx,vy,vz) for set SENSOR and time  0.8867188E-02

      7572  4.717202E-01 -4.796860E-01  1.227084E+01

 displacements (vx,vy,vz) for set SENSOR and time  0.8906250E-02

      7572  5.214688E-01 -4.578242E-01  1.258547E+01

 displacements (vx,vy,vz) for set SENSOR and time  0.8945313E-02

      7572  5.714043E-01 -4.320251E-01  1.304819E+01

 displacements (vx,vy,vz) for set SENSOR and time  0.8984375E-02

      7572  6.234813E-01 -4.012063E-01  1.349347E+01

 displacements (vx,vy,vz) for set SENSOR and time  0.9023438E-02

      7572  6.731174E-01 -3.708046E-01  1.385440E+01

 displacements (vx,vy,vz) for set SENSOR and time  0.9062500E-02

      7572  7.049770E-01 -3.519705E-01  1.422475E+01

 displacements (vx,vy,vz) for set SENSOR and time  0.9101563E-02

      7572  7.056482E-01 -3.496501E-01  1.472550E+01

 displacements (vx,vy,vz) for set SENSOR and time  0.9140625E-02

      7572  6.771649E-01 -3.556440E-01  1.538574E+01

 displacements (vx,vy,vz) for set SENSOR and time  0.9179688E-02

      7572  6.344769E-01 -3.575399E-01  1.617691E+01

 displacements (vx,vy,vz) for set SENSOR and time  0.9218750E-02

      7572  5.920364E-01 -3.535262E-01  1.707433E+01

 displacements (vx,vy,vz) for set SENSOR and time  0.9257813E-02

      7572  5.568311E-01 -3.553690E-01  1.801274E+01

 displacements (vx,vy,vz) for set SENSOR and time  0.9296875E-02

      7572  5.322332E-01 -3.764778E-01  1.883148E+01

 displacements (vx,vy,vz) for set SENSOR and time  0.9335938E-02

      7572  5.212629E-01 -4.188026E-01  1.935196E+01

 displacements (vx,vy,vz) for set SENSOR and time  0.9375000E-02

      7572  5.223216E-01 -4.717136E-01  1.952086E+01

 displacements (vx,vy,vz) for set SENSOR and time  0.9414063E-02

      7572  5.254123E-01 -5.218915E-01  1.944572E+01

 displacements (vx,vy,vz) for set SENSOR and time  0.9453125E-02

      7572  5.179608E-01 -5.628267E-01  1.930501E+01

 displacements (vx,vy,vz) for set SENSOR and time  0.9492188E-02

      7572  4.950599E-01 -5.951252E-01  1.925860E+01

 displacements (vx,vy,vz) for set SENSOR and time  0.9531250E-02

      7572  4.614146E-01 -6.195547E-01  1.941968E+01

 displacements (vx,vy,vz) for set SENSOR and time  0.9570313E-02

      7572  4.233372E-01 -6.322215E-01  1.984541E+01

 displacements (vx,vy,vz) for set SENSOR and time  0.9609375E-02

      7572  3.829766E-01 -6.280615E-01  2.053043E+01

 displacements (vx,vy,vz) for set SENSOR and time  0.9648438E-02

      7572  3.430724E-01 -6.085276E-01  2.143325E+01

 displacements (vx,vy,vz) for set SENSOR and time  0.9687500E-02

      7572  3.138811E-01 -5.838873E-01  2.251486E+01

 displacements (vx,vy,vz) for set SENSOR and time  0.9726563E-02

      7572  3.089161E-01 -5.667730E-01  2.373592E+01

 displacements (vx,vy,vz) for set SENSOR and time  0.9765625E-02

      7572  3.315882E-01 -5.637929E-01  2.503577E+01