
 displacements (vx,vy,vz) for set SENSOR and time  0.3906250E-04

      7572  3.608854E-03 -6.163065E-03 -1.042112E-01

 displacements (vx,vy,vz) for set SENSOR and time  0.7812500E-04

      7572  1.170890E-02 -1.354000E-02 -2.163073E-01

 displacements (vx,vy,vz) for set SENSOR and time  0.1171875E-03

      7572 -7.466899E-03  1.366563E-02  2.212611E-01

 displacements (vx,vy,vz) for set SENSOR and time  0.1562500E-03

      7572 -1.331754E-02  2.229272E-03 -1.537541E-02

 displacements (vx,vy,vz) for set SENSOR and time  0.1953125E-03

      7572  2.667882E-02 -1.916099E-02 -2.218280E-01

 displacements (vx,vy,vz) for set SENSOR and time  0.2343750E-03

      7572  8.164712E-04  1.334668E-02  2.882744E-01

 displacements (vx,vy,vz) for set SENSOR and time  0.2734375E-03

      7572 -5.740940E-02  1.416501E-02 -6.341391E-02

 displacements (vx,vy,vz) for set SENSOR and time  0.3125000E-03

      7572  4.620140E-02 -2.950905E-02 -4.498444E-01

 displacements (vx,vy,vz) for set SENSOR and time  0.3515625E-03

      7572  1.112922E-01 -1.397717E-02  5.432018E-01

 displacements (vx,vy,vz) for set SENSOR and time  0.3906250E-03

      7572 -9.320691E-02  2.775191E-02  6.685979E-01

 displacements (vx,vy,vz) for set SENSOR and time  0.4296875E-03

      7572 -1.918155E-01  2.815447E-02 -5.940941E-01

 displacements (vx,vy,vz) for set SENSOR and time  0.4687500E-03

      7572 -2.032191E-02  3.528897E-02 -8.020246E-01

 displacements (vx,vy,vz) for set SENSOR and time  0.5078125E-03

      7572  2.801288E-02  3.391978E-02 -6.917724E-01

 displacements (vx,vy,vz) for set SENSOR and time  0.5468750E-03

      7572  5.765347E-02 -3.645695E-02 -1.444813E+00

 displacements (vx,vy,vz) for set SENSOR and time  0.5859375E-03

      7572  3.707498E-01 -1.265657E-01 -5.210167E-01

 displacements (vx,vy,vz) for set SENSOR and time  0.6250000E-03

      7572  4.847308E-01 -1.917468E-01  2.474045E+00

 displacements (vx,vy,vz) for set SENSOR and time  0.6640625E-03

      7572  8.838081E-02 -1.832672E-01  3.929116E+00

 displacements (vx,vy,vz) for set SENSOR and time  0.7031250E-03

      7572 -2.564468E-01  2.220002E-02  2.739594E+00

 displacements (vx,vy,vz) for set SENSOR and time  0.7421875E-03

      7572 -2.679512E-01  3.014724E-01  1.300196E+00

 displacements (vx,vy,vz) for set SENSOR and time  0.7812500E-03

      7572 -2.385327E-01  3.109270E-01  9.075907E-01

 displacements (vx,vy,vz) for set SENSOR and time  0.8203125E-03

      7572 -2.255881E-01  1.081031E-01  6.137053E-01

 displacements (vx,vy,vz) for set SENSOR and time  0.8593750E-03

      7572 -1.663415E-01  3.987726E-02 -4.064973E-01

 displacements (vx,vy,vz) for set SENSOR and time  0.8984375E-03

      7572 -1.719784E-01  5.172985E-02 -1.418644E+00

 displacements (vx,vy,vz) for set SENSOR and time  0.9375000E-03

      7572 -2.417059E-01 -4.859907E-02 -1.904177E+00

 displacements (vx,vy,vz) for set SENSOR and time  0.9765625E-03

      7572 -2.858503E-01 -7.057470E-02 -2.850519E+00

 displacements (vx,vy,vz) for set SENSOR and time  0.1015625E-02

      7572 -2.521564E-01  7.189074E-02 -4.086863E+00

 displacements (vx,vy,vz) for set SENSOR and time  0.1054688E-02

      7572 -9.126849E-02  1.021467E-01 -3.894656E+00

 displacements (vx,vy,vz) for set SENSOR and time  0.1093750E-02

      7572  6.250806E-02 -1.821836E-04 -2.615565E+00

 displacements (vx,vy,vz) for set SENSOR and time  0.1132813E-02

      7572  3.638822E-02 -1.447137E-02 -1.853286E+00

 displacements (vx,vy,vz) for set SENSOR and time  0.1171875E-02

      7572 -2.687433E-02 -7.283413E-03 -1.458835E+00

 displacements (vx,vy,vz) for set SENSOR and time  0.1210938E-02

      7572  9.836523E-03 -6.129222E-02 -1.168429E+00

 displacements (vx,vy,vz) for set SENSOR and time  0.1250000E-02

      7572  1.561787E-02 -4.169138E-02 -1.269937E+00

 displacements (vx,vy,vz) for set SENSOR and time  0.1289063E-02

      7572 -4.759109E-02 -3.628215E-02 -8.552237E-01

 displacements (vx,vy,vz) for set SENSOR and time  0.1328125E-02

      7572 -9.289648E-02 -1.897688E-01  1.911546E-01

 displacements (vx,vy,vz) for set SENSOR and time  0.1367188E-02

      7572 -1.393418E-01 -2.419881E-01  1.753983E-01

 displacements (vx,vy,vz) for set SENSOR and time  0.1406250E-02

      7572 -1.901103E-01 -7.075436E-02 -1.168865E+00

 displacements (vx,vy,vz) for set SENSOR and time  0.1445313E-02

      7572 -2.018199E-01 -4.087980E-02 -2.782527E+00

 displacements (vx,vy,vz) for set SENSOR and time  0.1484375E-02

      7572 -1.634623E-01 -2.429506E-01 -4.459508E+00

 displacements (vx,vy,vz) for set SENSOR and time  0.1523438E-02

      7572 -3.084160E-02 -3.279494E-01 -5.644130E+00

 displacements (vx,vy,vz) for set SENSOR and time  0.1562500E-02

      7572  1.366503E-01 -2.386909E-01 -5.652265E+00

 displacements (vx,vy,vz) for set SENSOR and time  0.1601563E-02

      7572  1.759869E-01 -1.676618E-01 -5.447489E+00

 displacements (vx,vy,vz) for set SENSOR and time  0.1640625E-02

      7572  1.420178E-01 -4.901346E-02 -5.666254E+00

 displacements (vx,vy,vz) for set SENSOR and time  0.1679688E-02

      7572  1.440416E-01  2.032676E-01 -5.480027E+00

 displacements (vx,vy,vz) for set SENSOR and time  0.1718750E-02

      7572  1.058614E-01  3.990663E-01 -4.829509E+00

 displacements (vx,vy,vz) for set SENSOR and time  0.1757813E-02

      7572  1.182913E-01  3.826220E-01 -4.122482E+00

 displacements (vx,vy,vz) for set SENSOR and time  0.1796875E-02

      7572  3.370854E-01  2.516154E-01 -3.041468E+00

 displacements (vx,vy,vz) for set SENSOR and time  0.1835937E-02

      7572  5.117038E-01  1.714342E-01 -2.046313E+00

 displacements (vx,vy,vz) for set SENSOR and time  0.1875000E-02

      7572  4.349503E-01  1.804359E-01 -1.925505E+00

 displacements (vx,vy,vz) for set SENSOR and time  0.1914062E-02

      7572  3.295838E-01  2.072167E-01 -1.875410E+00

 displacements (vx,vy,vz) for set SENSOR and time  0.1953125E-02

      7572  2.750300E-01  2.283266E-01 -1.114889E+00

 displacements (vx,vy,vz) for set SENSOR and time  0.1992187E-02

      7572  1.463036E-01  2.619560E-01 -3.049391E-01

 displacements (vx,vy,vz) for set SENSOR and time  0.2031250E-02

      7572  8.914190E-02  2.210651E-01  2.681461E-01

 displacements (vx,vy,vz) for set SENSOR and time  0.2070312E-02

      7572  2.075067E-01  6.678823E-02  1.010588E+00

 displacements (vx,vy,vz) for set SENSOR and time  0.2109375E-02

      7572  2.780461E-01 -2.968481E-02  1.583349E+00

 displacements (vx,vy,vz) for set SENSOR and time  0.2148437E-02

      7572  2.069381E-01  3.510142E-04  1.578942E+00

 displacements (vx,vy,vz) for set SENSOR and time  0.2187500E-02

      7572  1.264936E-01 -2.012025E-03  1.546884E+00

 displacements (vx,vy,vz) for set SENSOR and time  0.2226562E-02

      7572  1.005518E-01 -5.120541E-02  1.902244E+00

 displacements (vx,vy,vz) for set SENSOR and time  0.2265625E-02

      7572  1.585057E-01 -2.527737E-02  2.149408E+00

 displacements (vx,vy,vz) for set SENSOR and time  0.2304687E-02

      7572  2.809620E-01  9.663947E-03  1.982716E+00

 displacements (vx,vy,vz) for set SENSOR and time  0.2343750E-02

      7572  3.259302E-01 -2.474366E-02  1.955777E+00

 displacements (vx,vy,vz) for set SENSOR and time  0.2382812E-02

      7572  2.594700E-01 -9.452102E-03  2.373844E+00

 displacements (vx,vy,vz) for set SENSOR and time  0.2421875E-02

      7572  1.852987E-01  8.663455E-02  2.650649E+00

 displacements (vx,vy,vz) for set SENSOR and time  0.2460937E-02

      7572  1.287428E-01  1.173944E-01  2.457286E+00

 displacements (vx,vy,vz) for set SENSOR and time  0.2500000E-02

      7572  1.017751E-01  4.871781E-02  2.244386E+00

 displacements (vx,vy,vz) for set SENSOR and time  0.2539062E-02

      7572  1.473171E-01 -9.492988E-03  2.248241E+00

 displacements (vx,vy,vz) for set SENSOR and time  0.2578125E-02

      7572  2.085549E-01  1.296777E-02  2.319901E+00

 displacements (vx,vy,vz) for set SENSOR and time  0.2617187E-02

      7572  2.291044E-01  9.910468E-02  2.474770E+00

 displacements (vx,vy,vz) for set SENSOR and time  0.2656250E-02

      7572  2.388423E-01  1.694938E-01  2.641231E+00

 displacements (vx,vy,vz) for set SENSOR and time  0.2695312E-02

      7572  2.436922E-01  1.665289E-01  2.653437E+00

 displacements (vx,vy,vz) for set SENSOR and time  0.2734375E-02

      7572  2.680395E-01  1.340664E-01  2.570009E+00

 displacements (vx,vy,vz) for set SENSOR and time  0.2773437E-02

      7572  3.416561E-01  1.067329E-01  2.309923E+00

 displacements (vx,vy,vz) for set SENSOR and time  0.2812500E-02

      7572  3.471968E-01  4.640707E-02  1.970424E+00

 displacements (vx,vy,vz) for set SENSOR and time  0.2851562E-02

      7572  2.142247E-01 -1.564976E-02  2.424712E+00

 displacements (vx,vy,vz) for set SENSOR and time  0.2890625E-02

      7572  1.019171E-01  8.122954E-04  3.962314E+00

 displacements (vx,vy,vz) for set SENSOR and time  0.2929687E-02

      7572  9.898528E-02  5.763623E-02  5.389936E+00

 displacements (vx,vy,vz) for set SENSOR and time  0.2968750E-02

      7572  1.124695E-01  7.777785E-02  5.830777E+00

 displacements (vx,vy,vz) for set SENSOR and time  0.3007812E-02

      7572  1.324131E-01  8.154751E-02  5.651961E+00

 displacements (vx,vy,vz) for set SENSOR and time  0.3046875E-02

      7572  2.006040E-01  8.543330E-02  5.229967E+00

 displacements (vx,vy,vz) for set SENSOR and time  0.3085937E-02

      7572  2.484670E-01  4.537749E-02  4.672710E+00

 displacements (vx,vy,vz) for set SENSOR and time  0.3125000E-02

      7572  2.166956E-01 -3.227069E-02  4.317394E+00

 displacements (vx,vy,vz) for set SENSOR and time  0.3164062E-02

      7572  1.304753E-01 -9.511424E-02  4.333248E+00

 displacements (vx,vy,vz) for set SENSOR and time  0.3203125E-02

      7572  4.221852E-02 -1.366278E-01  4.549732E+00

 displacements (vx,vy,vz) for set SENSOR and time  0.3242187E-02

      7572  2.514736E-02 -1.645403E-01  4.759107E+00

 displacements (vx,vy,vz) for set SENSOR and time  0.3281250E-02

      7572  9.137875E-02 -1.637366E-01  4.701173E+00

 displacements (vx,vy,vz) for set SENSOR and time  0.3320312E-02

      7572  1.559923E-01 -1.527403E-01  4.294137E+00

 displacements (vx,vy,vz) for set SENSOR and time  0.3359375E-02

      7572  1.851444E-01 -1.694719E-01  3.745692E+00

 displacements (vx,vy,vz) for set SENSOR and time  0.3398437E-02

      7572  2.018486E-01 -1.982807E-01  3.034722E+00

 displacements (vx,vy,vz) for set SENSOR and time  0.3437500E-02

      7572  1.914894E-01 -2.197149E-01  2.135583E+00

 displacements (vx,vy,vz) for set SENSOR and time  0.3476562E-02

      7572  1.897968E-01 -2.730953E-01  1.611648E+00

 displacements (vx,vy,vz) for set SENSOR and time  0.3515625E-02

      7572  2.650688E-01 -3.623516E-01  1.811337E+00

 displacements (vx,vy,vz) for set SENSOR and time  0.3554687E-02

      7572  3.534730E-01 -4.101344E-01  2.150921E+00

 displacements (vx,vy,vz) for set SENSOR and time  0.3593750E-02

      7572  3.733153E-01 -3.910551E-01  2.135591E+00

 displacements (vx,vy,vz) for set SENSOR and time  0.3632812E-02

      7572  3.797928E-01 -3.613025E-01  2.073796E+00

 displacements (vx,vy,vz) for set SENSOR and time  0.3671875E-02

      7572  3.979828E-01 -3.256581E-01  2.270546E+00

 displacements (vx,vy,vz) for set SENSOR and time  0.3710937E-02

      7572  3.516129E-01 -2.547961E-01  2.558879E+00

 displacements (vx,vy,vz) for set SENSOR and time  0.3750000E-02

      7572  2.482228E-01 -1.999279E-01  2.795626E+00

 displacements (vx,vy,vz) for set SENSOR and time  0.3789062E-02

      7572  1.806618E-01 -2.102439E-01  2.974895E+00

 displacements (vx,vy,vz) for set SENSOR and time  0.3828125E-02

      7572  1.685257E-01 -2.227170E-01  2.929128E+00

 displacements (vx,vy,vz) for set SENSOR and time  0.3867187E-02

      7572  1.660952E-01 -1.717807E-01  2.608048E+00

 displacements (vx,vy,vz) for set SENSOR and time  0.3906250E-02

      7572  1.474106E-01 -9.405629E-02  2.413823E+00

 displacements (vx,vy,vz) for set SENSOR and time  0.3945312E-02

      7572  1.092406E-01 -4.839884E-02  2.667163E+00

 displacements (vx,vy,vz) for set SENSOR and time  0.3984375E-02

      7572  4.919981E-02 -4.422167E-02  3.162083E+00

 displacements (vx,vy,vz) for set SENSOR and time  0.4023437E-02

      7572 -3.379745E-02 -7.558780E-02  3.635248E+00

 displacements (vx,vy,vz) for set SENSOR and time  0.4062500E-02

      7572 -1.190176E-01 -1.411574E-01  3.983384E+00

 displacements (vx,vy,vz) for set SENSOR and time  0.4101562E-02

      7572 -1.661582E-01 -2.177940E-01  4.004834E+00

 displacements (vx,vy,vz) for set SENSOR and time  0.4140625E-02

      7572 -1.665966E-01 -2.593105E-01  3.810323E+00

 displacements (vx,vy,vz) for set SENSOR and time  0.4179687E-02

      7572 -1.512067E-01 -2.429236E-01  4.032185E+00

 displacements (vx,vy,vz) for set SENSOR and time  0.4218750E-02

      7572 -1.401300E-01 -1.977906E-01  4.890129E+00

 displacements (vx,vy,vz) for set SENSOR and time  0.4257812E-02

      7572 -1.344329E-01 -1.577804E-01  5.914243E+00

 displacements (vx,vy,vz) for set SENSOR and time  0.4296875E-02

      7572 -1.233806E-01 -1.197018E-01  6.788391E+00

 displacements (vx,vy,vz) for set SENSOR and time  0.4335937E-02

      7572 -7.909198E-02 -8.313169E-02  7.403565E+00

 displacements (vx,vy,vz) for set SENSOR and time  0.4375000E-02

      7572  1.522514E-04 -6.423002E-02  7.483223E+00

 displacements (vx,vy,vz) for set SENSOR and time  0.4414062E-02

      7572  7.531585E-02 -4.541108E-02  7.026666E+00

 displacements (vx,vy,vz) for set SENSOR and time  0.4453125E-02

      7572  1.322026E-01 -1.490813E-03  6.419563E+00

 displacements (vx,vy,vz) for set SENSOR and time  0.4492187E-02

      7572  1.856584E-01  3.533511E-02  5.863814E+00

 displacements (vx,vy,vz) for set SENSOR and time  0.4531250E-02

      7572  2.319979E-01  3.084543E-02  5.391605E+00

 displacements (vx,vy,vz) for set SENSOR and time  0.4570312E-02

      7572  2.692207E-01  1.203668E-02  5.085662E+00

 displacements (vx,vy,vz) for set SENSOR and time  0.4609375E-02

      7572  2.984210E-01 -5.063485E-03  4.898135E+00

 displacements (vx,vy,vz) for set SENSOR and time  0.4648437E-02

      7572  2.839073E-01 -5.892503E-02  4.772100E+00

 displacements (vx,vy,vz) for set SENSOR and time  0.4687500E-02

      7572  2.062715E-01 -1.543844E-01  4.815171E+00

 displacements (vx,vy,vz) for set SENSOR and time  0.4726562E-02

      7572  1.189419E-01 -2.268521E-01  5.046710E+00

 displacements (vx,vy,vz) for set SENSOR and time  0.4765625E-02

      7572  7.782652E-02 -2.280898E-01  5.415867E+00

 displacements (vx,vy,vz) for set SENSOR and time  0.4804687E-02

      7572  8.581612E-02 -1.724645E-01  5.922169E+00

 displacements (vx,vy,vz) for set SENSOR and time  0.4843750E-02

      7572  1.265217E-01 -9.446388E-02  6.351257E+00

 displacements (vx,vy,vz) for set SENSOR and time  0.4882812E-02

      7572  1.779199E-01 -2.156527E-02  6.469444E+00

 displacements (vx,vy,vz) for set SENSOR and time  0.4921875E-02

      7572  2.160478E-01  1.357198E-02  6.488883E+00

 displacements (vx,vy,vz) for set SENSOR and time  0.4960937E-02

      7572  2.480242E-01 -1.710162E-02  6.640830E+00

 displacements (vx,vy,vz) for set SENSOR and time  0.5000000E-02

      7572  3.051787E-01 -1.002880E-01  6.729573E+00

 displacements (vx,vy,vz) for set SENSOR and time  0.5039062E-02

      7572  4.028819E-01 -1.784626E-01  6.629002E+00

 displacements (vx,vy,vz) for set SENSOR and time  0.5078125E-02

      7572  5.255185E-01 -2.057780E-01  6.516310E+00

 displacements (vx,vy,vz) for set SENSOR and time  0.5117187E-02

      7572  6.304447E-01 -1.937966E-01  6.417136E+00

 displacements (vx,vy,vz) for set SENSOR and time  0.5156250E-02

      7572  6.832953E-01 -1.790123E-01  6.160231E+00

 displacements (vx,vy,vz) for set SENSOR and time  0.5195312E-02

      7572  6.999730E-01 -1.693688E-01  5.681880E+00

 displacements (vx,vy,vz) for set SENSOR and time  0.5234375E-02

      7572  7.081525E-01 -1.575418E-01  5.023596E+00

 displacements (vx,vy,vz) for set SENSOR and time  0.5273437E-02

      7572  6.920834E-01 -1.565422E-01  4.299043E+00

 displacements (vx,vy,vz) for set SENSOR and time  0.5312500E-02

      7572  6.387265E-01 -1.821551E-01  3.758553E+00

 displacements (vx,vy,vz) for set SENSOR and time  0.5351562E-02

      7572  5.871762E-01 -2.260932E-01  3.633239E+00

 displacements (vx,vy,vz) for set SENSOR and time  0.5390625E-02

      7572  5.733996E-01 -2.688396E-01  3.909765E+00

 displacements (vx,vy,vz) for set SENSOR and time  0.5429687E-02

      7572  5.781416E-01 -2.940874E-01  4.356849E+00

 displacements (vx,vy,vz) for set SENSOR and time  0.5468750E-02

      7572  5.628985E-01 -2.921898E-01  4.761589E+00

 displacements (vx,vy,vz) for set SENSOR and time  0.5507812E-02

      7572  5.168143E-01 -2.696084E-01  5.093866E+00

 displacements (vx,vy,vz) for set SENSOR and time  0.5546875E-02

      7572  4.545065E-01 -2.380960E-01  5.398858E+00

 displacements (vx,vy,vz) for set SENSOR and time  0.5585937E-02

      7572  3.915258E-01 -1.979446E-01  5.651192E+00

 displacements (vx,vy,vz) for set SENSOR and time  0.5625000E-02

      7572  3.358166E-01 -1.598870E-01  5.824723E+00

 displacements (vx,vy,vz) for set SENSOR and time  0.5664062E-02

      7572  2.983533E-01 -1.515820E-01  5.925461E+00

 displacements (vx,vy,vz) for set SENSOR and time  0.5703125E-02

      7572  2.894402E-01 -1.759332E-01  5.915004E+00

 displacements (vx,vy,vz) for set SENSOR and time  0.5742187E-02

      7572  2.994112E-01 -2.115777E-01  5.818622E+00

 displacements (vx,vy,vz) for set SENSOR and time  0.5781250E-02

      7572  3.084107E-01 -2.539788E-01  5.796107E+00

 displacements (vx,vy,vz) for set SENSOR and time  0.5820312E-02

      7572  3.116911E-01 -2.989508E-01  5.883760E+00

 displacements (vx,vy,vz) for set SENSOR and time  0.5859375E-02

      7572  3.115551E-01 -3.208828E-01  5.891650E+00

 displacements (vx,vy,vz) for set SENSOR and time  0.5898437E-02

      7572  3.038862E-01 -3.179701E-01  5.734051E+00

 displacements (vx,vy,vz) for set SENSOR and time  0.5937500E-02

      7572  2.942504E-01 -3.199551E-01  5.604498E+00

 displacements (vx,vy,vz) for set SENSOR and time  0.5976562E-02

      7572  3.044363E-01 -3.272544E-01  5.692243E+00

 displacements (vx,vy,vz) for set SENSOR and time  0.6015625E-02

      7572  3.478199E-01 -3.128697E-01  5.950717E+00

 displacements (vx,vy,vz) for set SENSOR and time  0.6054687E-02

      7572  4.094185E-01 -2.796031E-01  6.263412E+00

 displacements (vx,vy,vz) for set SENSOR and time  0.6093750E-02

      7572  4.561892E-01 -2.525385E-01  6.638961E+00

 displacements (vx,vy,vz) for set SENSOR and time  0.6132812E-02

      7572  4.682032E-01 -2.388138E-01  7.089575E+00

 displacements (vx,vy,vz) for set SENSOR and time  0.6171875E-02

      7572  4.525621E-01 -2.354490E-01  7.517550E+00

 displacements (vx,vy,vz) for set SENSOR and time  0.6210937E-02

      7572  4.198385E-01 -2.461759E-01  7.901993E+00

 displacements (vx,vy,vz) for set SENSOR and time  0.6250000E-02

      7572  3.724563E-01 -2.698911E-01  8.362164E+00

 displacements (vx,vy,vz) for set SENSOR and time  0.6289062E-02

      7572  3.279712E-01 -2.961739E-01  8.882503E+00

 displacements (vx,vy,vz) for set SENSOR and time  0.6328125E-02

      7572  3.116687E-01 -3.217856E-01  9.253100E+00

 displacements (vx,vy,vz) for set SENSOR and time  0.6367187E-02

      7572  3.167425E-01 -3.570693E-01  9.374043E+00

 displacements (vx,vy,vz) for set SENSOR and time  0.6406250E-02

      7572  3.138608E-01 -4.035171E-01  9.374764E+00

 displacements (vx,vy,vz) for set SENSOR and time  0.6445312E-02

      7572  2.923867E-01 -4.362983E-01  9.461162E+00

 displacements (vx,vy,vz) for set SENSOR and time  0.6484375E-02

      7572  2.598730E-01 -4.339296E-01  9.818575E+00

 displacements (vx,vy,vz) for set SENSOR and time  0.6523437E-02

      7572  2.266945E-01 -4.114356E-01  1.053085E+01

 displacements (vx,vy,vz) for set SENSOR and time  0.6562500E-02

      7572  2.091904E-01 -3.934885E-01  1.148216E+01

 displacements (vx,vy,vz) for set SENSOR and time  0.6601562E-02

      7572  2.191669E-01 -3.811022E-01  1.246711E+01

 displacements (vx,vy,vz) for set SENSOR and time  0.6640625E-02

      7572  2.496943E-01 -3.732763E-01  1.339929E+01

 displacements (vx,vy,vz) for set SENSOR and time  0.6679687E-02

      7572  2.850931E-01 -3.814410E-01  1.430408E+01

 displacements (vx,vy,vz) for set SENSOR and time  0.6718750E-02

      7572  3.079925E-01 -4.004943E-01  1.518786E+01

 displacements (vx,vy,vz) for set SENSOR and time  0.6757812E-02

      7572  3.028026E-01 -4.058632E-01  1.602188E+01

 displacements (vx,vy,vz) for set SENSOR and time  0.6796875E-02

      7572  2.761958E-01 -3.881075E-01  1.677832E+01

 displacements (vx,vy,vz) for set SENSOR and time  0.6835937E-02

      7572  2.553982E-01 -3.606000E-01  1.741158E+01

 displacements (vx,vy,vz) for set SENSOR and time  0.6875000E-02

      7572  2.561283E-01 -3.375922E-01  1.787008E+01

 displacements (vx,vy,vz) for set SENSOR and time  0.6914062E-02

      7572  2.788585E-01 -3.233229E-01  1.816107E+01

 displacements (vx,vy,vz) for set SENSOR and time  0.6953125E-02

      7572  3.250368E-01 -3.155720E-01  1.834475E+01

 displacements (vx,vy,vz) for set SENSOR and time  0.6992187E-02

      7572  3.884328E-01 -3.103638E-01  1.846814E+01

 displacements (vx,vy,vz) for set SENSOR and time  0.7031250E-02

      7572  4.521713E-01 -3.025016E-01  1.856091E+01

 displacements (vx,vy,vz) for set SENSOR and time  0.7070312E-02

      7572  5.066198E-01 -2.854406E-01  1.865514E+01

 displacements (vx,vy,vz) for set SENSOR and time  0.7109375E-02

      7572  5.440469E-01 -2.605999E-01  1.876406E+01

 displacements (vx,vy,vz) for set SENSOR and time  0.7148437E-02

      7572  5.456705E-01 -2.429590E-01  1.888754E+01

 displacements (vx,vy,vz) for set SENSOR and time  0.7187500E-02

      7572  5.038625E-01 -2.441353E-01  1.901986E+01

 displacements (vx,vy,vz) for set SENSOR and time  0.7226562E-02

      7572  4.404483E-01 -2.588093E-01  1.910544E+01

 displacements (vx,vy,vz) for set SENSOR and time  0.7265625E-02

      7572  3.832855E-01 -2.778180E-01  1.907454E+01

 displacements (vx,vy,vz) for set SENSOR and time  0.7304687E-02

      7572  3.422339E-01 -2.997431E-01  1.895113E+01

 displacements (vx,vy,vz) for set SENSOR and time  0.7343750E-02

      7572  3.148123E-01 -3.251648E-01  1.882121E+01

 displacements (vx,vy,vz) for set SENSOR and time  0.7382812E-02

      7572  2.973026E-01 -3.541873E-01  1.872430E+01

 displacements (vx,vy,vz) for set SENSOR and time  0.7421875E-02

      7572  2.863086E-01 -3.878435E-01  1.864345E+01

 displacements (vx,vy,vz) for set SENSOR and time  0.7460938E-02

      7572  2.817801E-01 -4.241248E-01  1.851246E+01

 displacements (vx,vy,vz) for set SENSOR and time  0.7500000E-02

      7572  2.907750E-01 -4.600651E-01  1.825039E+01

 displacements (vx,vy,vz) for set SENSOR and time  0.7539063E-02

      7572  3.191283E-01 -4.975290E-01  1.791209E+01

 displacements (vx,vy,vz) for set SENSOR and time  0.7578125E-02

      7572  3.602272E-01 -5.374593E-01  1.770934E+01

 displacements (vx,vy,vz) for set SENSOR and time  0.7617188E-02

      7572  4.022220E-01 -5.730555E-01  1.779183E+01

 displacements (vx,vy,vz) for set SENSOR and time  0.7656250E-02

      7572  4.398600E-01 -5.940309E-01  1.813822E+01

 displacements (vx,vy,vz) for set SENSOR and time  0.7695313E-02

      7572  4.678526E-01 -5.918771E-01  1.865152E+01

 displacements (vx,vy,vz) for set SENSOR and time  0.7734375E-02

      7572  4.783737E-01 -5.648200E-01  1.920821E+01

 displacements (vx,vy,vz) for set SENSOR and time  0.7773438E-02

      7572  4.764681E-01 -5.264146E-01  1.968680E+01

 displacements (vx,vy,vz) for set SENSOR and time  0.7812500E-02

      7572  4.777235E-01 -5.008066E-01  2.005594E+01

 displacements (vx,vy,vz) for set SENSOR and time  0.7851563E-02

      7572  4.882400E-01 -5.005785E-01  2.035802E+01

 displacements (vx,vy,vz) for set SENSOR and time  0.7890625E-02

      7572  5.063335E-01 -5.172873E-01  2.061167E+01

 displacements (vx,vy,vz) for set SENSOR and time  0.7929688E-02

      7572  5.309088E-01 -5.358191E-01  2.081597E+01

 displacements (vx,vy,vz) for set SENSOR and time  0.7968750E-02

      7572  5.514384E-01 -5.462598E-01  2.099012E+01

 displacements (vx,vy,vz) for set SENSOR and time  0.8007813E-02

      7572  5.523435E-01 -5.438074E-01  2.116166E+01

 displacements (vx,vy,vz) for set SENSOR and time  0.8046875E-02

      7572  5.361632E-01 -5.320462E-01  2.137687E+01

 displacements (vx,vy,vz) for set SENSOR and time  0.8085938E-02

      7572  5.210791E-01 -5.236351E-01  2.169750E+01

 displacements (vx,vy,vz) for set SENSOR and time  0.8125000E-02

      7572  5.194976E-01 -5.252312E-01  2.212560E+01

 displacements (vx,vy,vz) for set SENSOR and time  0.8164063E-02

      7572  5.336940E-01 -5.278465E-01  2.258028E+01

 displacements (vx,vy,vz) for set SENSOR and time  0.8203125E-02

      7572  5.602300E-01 -5.206167E-01  2.298604E+01

 displacements (vx,vy,vz) for set SENSOR and time  0.8242188E-02

      7572  5.918926E-01 -5.025705E-01  2.334195E+01

 displacements (vx,vy,vz) for set SENSOR and time  0.8281250E-02

      7572  6.236425E-01 -4.758917E-01  2.369377E+01

 displacements (vx,vy,vz) for set SENSOR and time  0.8320313E-02

      7572  6.519182E-01 -4.439141E-01  2.407447E+01

 displacements (vx,vy,vz) for set SENSOR and time  0.8359375E-02

      7572  6.676733E-01 -4.181371E-01  2.448542E+01

 displacements (vx,vy,vz) for set SENSOR and time  0.8398438E-02

      7572  6.633865E-01 -4.100997E-01  2.491270E+01

 displacements (vx,vy,vz) for set SENSOR and time  0.8437500E-02

      7572  6.433121E-01 -4.177808E-01  2.533377E+01

 displacements (vx,vy,vz) for set SENSOR and time  0.8476563E-02

      7572  6.165419E-01 -4.340176E-01  2.571839E+01

 displacements (vx,vy,vz) for set SENSOR and time  0.8515625E-02

      7572  5.883548E-01 -4.593165E-01  2.605218E+01

 displacements (vx,vy,vz) for set SENSOR and time  0.8554688E-02

      7572  5.635632E-01 -4.928019E-01  2.635474E+01

 displacements (vx,vy,vz) for set SENSOR and time  0.8593750E-02

      7572  5.486419E-01 -5.232969E-01  2.666718E+01

 displacements (vx,vy,vz) for set SENSOR and time  0.8632813E-02

      7572  5.462151E-01 -5.414192E-01  2.704238E+01

 displacements (vx,vy,vz) for set SENSOR and time  0.8671875E-02

      7572  5.502524E-01 -5.484680E-01  2.754068E+01

 displacements (vx,vy,vz) for set SENSOR and time  0.8710938E-02

      7572  5.497777E-01 -5.478222E-01  2.819196E+01

 displacements (vx,vy,vz) for set SENSOR and time  0.8750000E-02

      7572  5.409558E-01 -5.415925E-01  2.894551E+01

 displacements (vx,vy,vz) for set SENSOR and time  0.8789063E-02

      7572  5.319300E-01 -5.376667E-01  2.968149E+01

 displacements (vx,vy,vz) for set SENSOR and time  0.8828125E-02

      7572  5.298639E-01 -5.459308E-01  3.028979E+01

 displacements (vx,vy,vz) for set SENSOR and time  0.8867188E-02

      7572  5.302372E-01 -5.665306E-01  3.072596E+01

 displacements (vx,vy,vz) for set SENSOR and time  0.8906250E-02

      7572  5.255309E-01 -5.907547E-01  3.099781E+01

 displacements (vx,vy,vz) for set SENSOR and time  0.8945313E-02

      7572  5.159258E-01 -6.103092E-01  3.114967E+01

 displacements (vx,vy,vz) for set SENSOR and time  0.8984375E-02

      7572  5.061730E-01 -6.206673E-01  3.125662E+01

 displacements (vx,vy,vz) for set SENSOR and time  0.9023438E-02

      7572  5.001552E-01 -6.222219E-01  3.135650E+01

 displacements (vx,vy,vz) for set SENSOR and time  0.9062500E-02

      7572  5.023574E-01 -6.220844E-01  3.139709E+01

 displacements (vx,vy,vz) for set SENSOR and time  0.9101563E-02

      7572  5.172953E-01 -6.287156E-01  3.132838E+01

 displacements (vx,vy,vz) for set SENSOR and time  0.9140625E-02

      7572  5.426750E-01 -6.435762E-01  3.120102E+01

 displacements (vx,vy,vz) for set SENSOR and time  0.9179688E-02

      7572  5.679026E-01 -6.619171E-01  3.109371E+01

 displacements (vx,vy,vz) for set SENSOR and time  0.9218750E-02

      7572  5.842965E-01 -6.791456E-01  3.100764E+01

 displacements (vx,vy,vz) for set SENSOR and time  0.9257813E-02

      7572  5.934744E-01 -6.927624E-01  3.088647E+01

 displacements (vx,vy,vz) for set SENSOR and time  0.9296875E-02

      7572  6.023706E-01 -7.017751E-01  3.067324E+01

 displacements (vx,vy,vz) for set SENSOR and time  0.9335938E-02

      7572  6.146992E-01 -7.076716E-01  3.033379E+01

 displacements (vx,vy,vz) for set SENSOR and time  0.9375000E-02

      7572  6.298046E-01 -7.133484E-01  2.988431E+01

 displacements (vx,vy,vz) for set SENSOR and time  0.9414063E-02

      7572  6.448983E-01 -7.190381E-01  2.938674E+01

 displacements (vx,vy,vz) for set SENSOR and time  0.9453125E-02

      7572  6.573422E-01 -7.217710E-01  2.889638E+01

 displacements (vx,vy,vz) for set SENSOR and time  0.9492188E-02

      7572  6.680563E-01 -7.208131E-01  2.844609E+01

 displacements (vx,vy,vz) for set SENSOR and time  0.9531250E-02

      7572  6.812148E-01 -7.210621E-01  2.806422E+01

 displacements (vx,vy,vz) for set SENSOR and time  0.9570313E-02

      7572  6.986592E-01 -7.276198E-01  2.775506E+01

 displacements (vx,vy,vz) for set SENSOR and time  0.9609375E-02

      7572  7.166825E-01 -7.383881E-01  2.748370E+01

 displacements (vx,vy,vz) for set SENSOR and time  0.9648438E-02

      7572  7.282526E-01 -7.459628E-01  2.721814E+01

 displacements (vx,vy,vz) for set SENSOR and time  0.9687500E-02

      7572  7.269063E-01 -7.462955E-01  2.696171E+01

 displacements (vx,vy,vz) for set SENSOR and time  0.9726563E-02

      7572  7.104746E-01 -7.419730E-01  2.673051E+01

 displacements (vx,vy,vz) for set SENSOR and time  0.9765625E-02

      7572  6.831697E-01 -7.377702E-01  2.653533E+01