
 displacements (vx,vy,vz) for set SENSOR and time  0.3906250E-04

      7572  5.115185E-03  1.121007E-02 -1.268504E-01

 displacements (vx,vy,vz) for set SENSOR and time  0.7812500E-04

      7572  1.484815E-02  2.498730E-02 -2.672838E-01

 displacements (vx,vy,vz) for set SENSOR and time  0.1171875E-03

      7572 -1.069495E-02 -2.351518E-02  2.652367E-01

 displacements (vx,vy,vz) for set SENSOR and time  0.1562500E-03

      7572 -1.311949E-02 -5.340649E-03 -5.188339E-03

 displacements (vx,vy,vz) for set SENSOR and time  0.1953125E-03

      7572  3.067709E-02  2.979736E-02 -2.728959E-01

 displacements (vx,vy,vz) for set SENSOR and time  0.2343750E-03

      7572 -2.278365E-03 -1.968366E-02  3.221425E-01

 displacements (vx,vy,vz) for set SENSOR and time  0.2734375E-03

      7572 -5.853418E-02 -1.595628E-02 -4.427239E-02

 displacements (vx,vy,vz) for set SENSOR and time  0.3125000E-03

      7572  4.988053E-02  3.947339E-02 -4.985084E-01

 displacements (vx,vy,vz) for set SENSOR and time  0.3515625E-03

      7572  1.092113E-01  4.884122E-03  5.622720E-01

 displacements (vx,vy,vz) for set SENSOR and time  0.3906250E-03

      7572 -9.345362E-02 -3.166738E-02  6.949279E-01

 displacements (vx,vy,vz) for set SENSOR and time  0.4296875E-03

      7572 -1.879189E-01 -1.231936E-02 -6.243601E-01

 displacements (vx,vy,vz) for set SENSOR and time  0.4687500E-03

      7572 -2.407445E-02 -4.242495E-02 -8.011469E-01

 displacements (vx,vy,vz) for set SENSOR and time  0.5078125E-03

      7572  2.584264E-02 -5.089742E-02 -6.976135E-01

 displacements (vx,vy,vz) for set SENSOR and time  0.5468750E-03

      7572  6.276585E-02  5.252492E-02 -1.449201E+00

 displacements (vx,vy,vz) for set SENSOR and time  0.5859375E-03

      7572  3.688568E-01  1.499814E-01 -4.714667E-01

 displacements (vx,vy,vz) for set SENSOR and time  0.6250000E-03

      7572  4.823516E-01  1.837604E-01  2.411692E+00

 displacements (vx,vy,vz) for set SENSOR and time  0.6640625E-03

      7572  9.275345E-02  1.405052E-01  3.877985E+00

 displacements (vx,vy,vz) for set SENSOR and time  0.7031250E-03

      7572 -2.611605E-01 -5.870113E-02  3.046505E+00

 displacements (vx,vy,vz) for set SENSOR and time  0.7421875E-03

      7572 -2.754021E-01 -2.578142E-01  1.503278E+00

 displacements (vx,vy,vz) for set SENSOR and time  0.7812500E-03

      7572 -2.354777E-01 -2.317897E-01  3.186844E-01

 displacements (vx,vy,vz) for set SENSOR and time  0.8203125E-03

      7572 -2.238357E-01 -1.404329E-01 -2.840181E-01

 displacements (vx,vy,vz) for set SENSOR and time  0.8593750E-03

      7572 -1.582778E-01 -1.409516E-01 -6.387439E-01

 displacements (vx,vy,vz) for set SENSOR and time  0.8984375E-03

      7572 -1.531767E-01 -4.271897E-02 -7.848664E-01

 displacements (vx,vy,vz) for set SENSOR and time  0.9375000E-03

      7572 -2.459977E-01  1.498074E-01 -8.458136E-01

 displacements (vx,vy,vz) for set SENSOR and time  0.9765625E-03

      7572 -3.014904E-01  1.463500E-01 -1.990077E+00

 displacements (vx,vy,vz) for set SENSOR and time  0.1015625E-02

      7572 -2.438310E-01 -1.442668E-02 -3.763126E+00

 displacements (vx,vy,vz) for set SENSOR and time  0.1054688E-02

      7572 -9.996870E-02 -7.793116E-02 -3.829881E+00

 displacements (vx,vy,vz) for set SENSOR and time  0.1093750E-02

      7572  3.066685E-02 -8.163493E-02 -2.612314E+00

 displacements (vx,vy,vz) for set SENSOR and time  0.1132813E-02

      7572  5.412007E-02 -9.940154E-02 -2.121616E+00

 displacements (vx,vy,vz) for set SENSOR and time  0.1171875E-02

      7572  1.057472E-04  1.087866E-03 -1.752775E+00

 displacements (vx,vy,vz) for set SENSOR and time  0.1210938E-02

      7572 -3.966239E-02  1.489969E-01 -9.776394E-01

 displacements (vx,vy,vz) for set SENSOR and time  0.1250000E-02

      7572 -1.960630E-02  1.026625E-01 -9.044911E-01

 displacements (vx,vy,vz) for set SENSOR and time  0.1289063E-02

      7572  1.200496E-02 -2.266698E-02 -1.085982E+00

 displacements (vx,vy,vz) for set SENSOR and time  0.1328125E-02

      7572 -5.966658E-02  5.589000E-03 -9.459246E-01

 displacements (vx,vy,vz) for set SENSOR and time  0.1367188E-02

      7572 -1.995552E-01  3.197600E-02 -1.651942E+00

 displacements (vx,vy,vz) for set SENSOR and time  0.1406250E-02

      7572 -2.280855E-01 -6.135285E-02 -2.984288E+00

 displacements (vx,vy,vz) for set SENSOR and time  0.1445313E-02

      7572 -1.604322E-01 -2.089840E-02 -3.720896E+00

 displacements (vx,vy,vz) for set SENSOR and time  0.1484375E-02

      7572 -1.178381E-01  1.640054E-01 -4.324634E+00

 displacements (vx,vy,vz) for set SENSOR and time  0.1523438E-02

      7572 -2.884905E-02  1.553476E-01 -4.952736E+00

 displacements (vx,vy,vz) for set SENSOR and time  0.1562500E-02

      7572  1.235460E-01 -1.654554E-02 -5.016462E+00

 displacements (vx,vy,vz) for set SENSOR and time  0.1601563E-02

      7572  1.723414E-01 -4.872002E-02 -5.335366E+00

 displacements (vx,vy,vz) for set SENSOR and time  0.1640625E-02

      7572  1.060364E-01  2.411300E-03 -6.241885E+00

 displacements (vx,vy,vz) for set SENSOR and time  0.1679688E-02

      7572  4.541816E-02 -2.929933E-02 -6.580385E+00

 displacements (vx,vy,vz) for set SENSOR and time  0.1718750E-02

      7572  5.328276E-02 -3.219488E-02 -6.325063E+00

 displacements (vx,vy,vz) for set SENSOR and time  0.1757813E-02

      7572  2.285764E-01  5.032780E-02 -5.886718E+00

 displacements (vx,vy,vz) for set SENSOR and time  0.1796875E-02

      7572  5.256180E-01  9.546480E-02 -4.755887E+00

 displacements (vx,vy,vz) for set SENSOR and time  0.1835937E-02

      7572  6.371488E-01  9.556679E-02 -3.463132E+00

 displacements (vx,vy,vz) for set SENSOR and time  0.1875000E-02

      7572  4.850078E-01  1.128931E-01 -2.849170E+00

 displacements (vx,vy,vz) for set SENSOR and time  0.1914062E-02

      7572  2.935665E-01  1.347094E-01 -2.068847E+00

 displacements (vx,vy,vz) for set SENSOR and time  0.1953125E-02

      7572  1.225330E-01  1.543790E-01 -7.725234E-01

 displacements (vx,vy,vz) for set SENSOR and time  0.1992187E-02

      7572 -7.475825E-04  1.401047E-01  1.803761E-01

 displacements (vx,vy,vz) for set SENSOR and time  0.2031250E-02

      7572  1.018602E-01  3.814055E-02  1.130766E+00

 displacements (vx,vy,vz) for set SENSOR and time  0.2070312E-02

      7572  3.291725E-01 -5.484282E-02  2.589201E+00

 displacements (vx,vy,vz) for set SENSOR and time  0.2109375E-02

      7572  3.815147E-01  1.832810E-03  3.461626E+00

 displacements (vx,vy,vz) for set SENSOR and time  0.2148437E-02

      7572  3.098289E-01  1.494172E-01  3.153365E+00

 displacements (vx,vy,vz) for set SENSOR and time  0.2187500E-02

      7572  2.946156E-01  2.327905E-01  2.639704E+00

 displacements (vx,vy,vz) for set SENSOR and time  0.2226562E-02

      7572  2.630877E-01  2.024594E-01  2.645835E+00

 displacements (vx,vy,vz) for set SENSOR and time  0.2265625E-02

      7572  1.798230E-01  1.117078E-01  3.026716E+00

 displacements (vx,vy,vz) for set SENSOR and time  0.2304687E-02

      7572  1.621776E-01  3.109797E-02  3.426710E+00

 displacements (vx,vy,vz) for set SENSOR and time  0.2343750E-02

      7572  1.949466E-01 -2.568117E-02  3.626227E+00

 displacements (vx,vy,vz) for set SENSOR and time  0.2382812E-02

      7572  1.879286E-01 -6.643995E-02  3.766747E+00

 displacements (vx,vy,vz) for set SENSOR and time  0.2421875E-02

      7572  1.584282E-01 -4.224634E-02  4.124628E+00

 displacements (vx,vy,vz) for set SENSOR and time  0.2460937E-02

      7572  1.328986E-01  3.461581E-02  4.757999E+00

 displacements (vx,vy,vz) for set SENSOR and time  0.2500000E-02

      7572  1.127445E-01  4.828096E-02  5.490593E+00

 displacements (vx,vy,vz) for set SENSOR and time  0.2539062E-02

      7572  1.382318E-01  1.505821E-02  5.842324E+00

 displacements (vx,vy,vz) for set SENSOR and time  0.2578125E-02

      7572  2.026871E-01  5.511186E-02  5.593955E+00

 displacements (vx,vy,vz) for set SENSOR and time  0.2617187E-02

      7572  2.248614E-01  1.127646E-01  5.317258E+00

 displacements (vx,vy,vz) for set SENSOR and time  0.2656250E-02

      7572  1.894321E-01  7.850723E-02  5.250975E+00

 displacements (vx,vy,vz) for set SENSOR and time  0.2695312E-02

      7572  1.693099E-01  1.280565E-02  4.898242E+00

 displacements (vx,vy,vz) for set SENSOR and time  0.2734375E-02

      7572  1.828676E-01 -2.194447E-02  4.441800E+00

 displacements (vx,vy,vz) for set SENSOR and time  0.2773437E-02

      7572  1.701533E-01 -3.840383E-02  4.404671E+00

 displacements (vx,vy,vz) for set SENSOR and time  0.2812500E-02

      7572  1.294857E-01  7.842153E-04  4.374525E+00

 displacements (vx,vy,vz) for set SENSOR and time  0.2851562E-02

      7572  1.133406E-01  6.670750E-02  4.067528E+00

 displacements (vx,vy,vz) for set SENSOR and time  0.2890625E-02

      7572  8.919512E-02  2.909595E-02  3.878864E+00

 displacements (vx,vy,vz) for set SENSOR and time  0.2929687E-02

      7572  2.967666E-02 -8.819210E-02  3.612242E+00

 displacements (vx,vy,vz) for set SENSOR and time  0.2968750E-02

      7572  6.023301E-02 -1.483913E-01  3.063891E+00

 displacements (vx,vy,vz) for set SENSOR and time  0.3007812E-02

      7572  2.378042E-01 -1.479282E-01  2.967230E+00

 displacements (vx,vy,vz) for set SENSOR and time  0.3046875E-02

      7572  3.792518E-01 -1.224274E-01  3.399865E+00

 displacements (vx,vy,vz) for set SENSOR and time  0.3085937E-02

      7572  3.560185E-01 -4.851338E-02  3.373911E+00

 displacements (vx,vy,vz) for set SENSOR and time  0.3125000E-02

      7572  2.624858E-01  1.728184E-02  2.791574E+00

 displacements (vx,vy,vz) for set SENSOR and time  0.3164062E-02

      7572  1.823235E-01  9.670176E-03  2.467075E+00

 displacements (vx,vy,vz) for set SENSOR and time  0.3203125E-02

      7572  1.172131E-01  5.308935E-03  2.612094E+00

 displacements (vx,vy,vz) for set SENSOR and time  0.3242187E-02

      7572  9.744719E-02  5.662901E-02  2.957278E+00

 displacements (vx,vy,vz) for set SENSOR and time  0.3281250E-02

      7572  1.203312E-01  9.194407E-02  3.409742E+00

 displacements (vx,vy,vz) for set SENSOR and time  0.3320312E-02

      7572  1.318562E-01  9.558968E-02  3.965868E+00

 displacements (vx,vy,vz) for set SENSOR and time  0.3359375E-02

      7572  1.282908E-01  1.220338E-01  4.708124E+00

 displacements (vx,vy,vz) for set SENSOR and time  0.3398437E-02

      7572  1.087586E-01  1.532023E-01  5.678203E+00

 displacements (vx,vy,vz) for set SENSOR and time  0.3437500E-02

      7572  4.465532E-02  1.520017E-01  6.624130E+00

 displacements (vx,vy,vz) for set SENSOR and time  0.3476562E-02

      7572 -1.771836E-02  1.370602E-01  7.330929E+00

 displacements (vx,vy,vz) for set SENSOR and time  0.3515625E-02

      7572 -2.477500E-02  1.021080E-01  7.779978E+00

 displacements (vx,vy,vz) for set SENSOR and time  0.3554687E-02

      7572 -2.988051E-02  2.719849E-02  7.772557E+00

 displacements (vx,vy,vz) for set SENSOR and time  0.3593750E-02

      7572 -5.568051E-02 -2.854570E-02  7.112897E+00

 displacements (vx,vy,vz) for set SENSOR and time  0.3632812E-02

      7572 -2.144573E-02 -6.882986E-03  6.100942E+00

 displacements (vx,vy,vz) for set SENSOR and time  0.3671875E-02

      7572  7.799519E-02  4.376687E-02  5.232745E+00

 displacements (vx,vy,vz) for set SENSOR and time  0.3710937E-02

      7572  1.366249E-01  6.613883E-02  4.649184E+00

 displacements (vx,vy,vz) for set SENSOR and time  0.3750000E-02

      7572  1.104797E-01  8.771603E-02  4.255276E+00

 displacements (vx,vy,vz) for set SENSOR and time  0.3789062E-02

      7572  5.059457E-02  1.326601E-01  4.039719E+00

 displacements (vx,vy,vz) for set SENSOR and time  0.3828125E-02

      7572 -4.485728E-03  1.666711E-01  3.910624E+00

 displacements (vx,vy,vz) for set SENSOR and time  0.3867187E-02

      7572 -4.725448E-02  1.740758E-01  3.526683E+00

 displacements (vx,vy,vz) for set SENSOR and time  0.3906250E-02

      7572 -5.734159E-02  1.696624E-01  2.721244E+00

 displacements (vx,vy,vz) for set SENSOR and time  0.3945312E-02

      7572 -2.539675E-02  1.377325E-01  1.780164E+00

 displacements (vx,vy,vz) for set SENSOR and time  0.3984375E-02

      7572  7.337680E-03  6.803410E-02  9.424082E-01

 displacements (vx,vy,vz) for set SENSOR and time  0.4023437E-02

      7572  4.696115E-03  1.121432E-02  1.330902E-01

 displacements (vx,vy,vz) for set SENSOR and time  0.4062500E-02

      7572 -4.988251E-04  1.358303E-02 -6.081587E-01

 displacements (vx,vy,vz) for set SENSOR and time  0.4101562E-02

      7572  2.884942E-02  5.040793E-02 -1.098752E+00

 displacements (vx,vy,vz) for set SENSOR and time  0.4140625E-02

      7572  7.007788E-02  6.676057E-02 -1.401774E+00

 displacements (vx,vy,vz) for set SENSOR and time  0.4179687E-02

      7572  1.093616E-01  3.539349E-02 -1.689618E+00

 displacements (vx,vy,vz) for set SENSOR and time  0.4218750E-02

      7572  1.707120E-01 -2.908927E-02 -1.972104E+00

 displacements (vx,vy,vz) for set SENSOR and time  0.4257812E-02

      7572  2.404170E-01 -7.973120E-02 -2.230887E+00

 displacements (vx,vy,vz) for set SENSOR and time  0.4296875E-02

      7572  2.746230E-01 -7.066263E-02 -2.483488E+00

 displacements (vx,vy,vz) for set SENSOR and time  0.4335937E-02

      7572  2.596771E-01  8.168548E-03 -2.717939E+00

 displacements (vx,vy,vz) for set SENSOR and time  0.4375000E-02

      7572  1.935376E-01  1.231879E-01 -2.927419E+00

 displacements (vx,vy,vz) for set SENSOR and time  0.4414062E-02

      7572  9.601128E-02  2.097771E-01 -3.039364E+00

 displacements (vx,vy,vz) for set SENSOR and time  0.4453125E-02

      7572  4.465399E-02  2.180009E-01 -2.940267E+00

 displacements (vx,vy,vz) for set SENSOR and time  0.4492187E-02

      7572  8.687174E-02  1.653380E-01 -2.728281E+00

 displacements (vx,vy,vz) for set SENSOR and time  0.4531250E-02

      7572  1.728745E-01  1.139400E-01 -2.619188E+00

 displacements (vx,vy,vz) for set SENSOR and time  0.4570312E-02

      7572  2.478761E-01  9.928104E-02 -2.604336E+00

 displacements (vx,vy,vz) for set SENSOR and time  0.4609375E-02

      7572  2.964272E-01  1.096914E-01 -2.495774E+00

 displacements (vx,vy,vz) for set SENSOR and time  0.4648437E-02

      7572  2.846529E-01  1.135521E-01 -2.106166E+00

 displacements (vx,vy,vz) for set SENSOR and time  0.4687500E-02

      7572  1.930410E-01  9.125938E-02 -1.264288E+00

 displacements (vx,vy,vz) for set SENSOR and time  0.4726562E-02

      7572  8.242897E-02  5.395344E-02  1.223482E-02

 displacements (vx,vy,vz) for set SENSOR and time  0.4765625E-02

      7572  3.581121E-02  1.770661E-02  1.354108E+00

 displacements (vx,vy,vz) for set SENSOR and time  0.4804687E-02

      7572  7.100312E-02 -2.638617E-02  2.335120E+00

 displacements (vx,vy,vz) for set SENSOR and time  0.4843750E-02

      7572  1.388238E-01 -7.897580E-02  2.922924E+00

 displacements (vx,vy,vz) for set SENSOR and time  0.4882812E-02

      7572  1.776647E-01 -1.099844E-01  3.457104E+00

 displacements (vx,vy,vz) for set SENSOR and time  0.4921875E-02

      7572  1.685310E-01 -1.019936E-01  4.110560E+00

 displacements (vx,vy,vz) for set SENSOR and time  0.4960937E-02

      7572  1.330956E-01 -6.154908E-02  4.601674E+00

 displacements (vx,vy,vz) for set SENSOR and time  0.5000000E-02

      7572  9.511706E-02  1.003332E-02  4.705047E+00

 displacements (vx,vy,vz) for set SENSOR and time  0.5039062E-02

      7572  8.608017E-02  9.875771E-02  4.677292E+00

 displacements (vx,vy,vz) for set SENSOR and time  0.5078125E-02

      7572  1.356965E-01  1.659797E-01  4.750163E+00

 displacements (vx,vy,vz) for set SENSOR and time  0.5117187E-02

      7572  2.051258E-01  1.938300E-01  4.692433E+00

 displacements (vx,vy,vz) for set SENSOR and time  0.5156250E-02

      7572  2.184452E-01  1.962723E-01  4.290448E+00

 displacements (vx,vy,vz) for set SENSOR and time  0.5195312E-02

      7572  1.830463E-01  1.851551E-01  3.738966E+00

 displacements (vx,vy,vz) for set SENSOR and time  0.5234375E-02

      7572  1.682481E-01  1.697118E-01  3.276666E+00

 displacements (vx,vy,vz) for set SENSOR and time  0.5273437E-02

      7572  1.856763E-01  1.651942E-01  2.846856E+00

 displacements (vx,vy,vz) for set SENSOR and time  0.5312500E-02

      7572  1.987351E-01  1.803381E-01  2.240450E+00

 displacements (vx,vy,vz) for set SENSOR and time  0.5351562E-02

      7572  1.995920E-01  2.184235E-01  1.367167E+00

 displacements (vx,vy,vz) for set SENSOR and time  0.5390625E-02

      7572  1.976880E-01  2.745107E-01  3.237396E-01

 displacements (vx,vy,vz) for set SENSOR and time  0.5429687E-02

      7572  1.901240E-01  3.236736E-01 -7.928047E-01

 displacements (vx,vy,vz) for set SENSOR and time  0.5468750E-02

      7572  1.829947E-01  3.477117E-01 -1.987648E+00

 displacements (vx,vy,vz) for set SENSOR and time  0.5507812E-02

      7572  1.910078E-01  3.555343E-01 -3.151807E+00

 displacements (vx,vy,vz) for set SENSOR and time  0.5546875E-02

      7572  2.057741E-01  3.502451E-01 -4.005434E+00

 displacements (vx,vy,vz) for set SENSOR and time  0.5585937E-02

      7572  2.066055E-01  3.264562E-01 -4.431780E+00

 displacements (vx,vy,vz) for set SENSOR and time  0.5625000E-02

      7572  2.010783E-01  3.049306E-01 -4.601735E+00

 displacements (vx,vy,vz) for set SENSOR and time  0.5664062E-02

      7572  2.155282E-01  3.019486E-01 -4.698645E+00

 displacements (vx,vy,vz) for set SENSOR and time  0.5703125E-02

      7572  2.501866E-01  2.866365E-01 -4.768805E+00

 displacements (vx,vy,vz) for set SENSOR and time  0.5742187E-02

      7572  2.838606E-01  2.321573E-01 -4.849207E+00

 displacements (vx,vy,vz) for set SENSOR and time  0.5781250E-02

      7572  3.059790E-01  1.630117E-01 -5.044371E+00

 displacements (vx,vy,vz) for set SENSOR and time  0.5820312E-02

      7572  3.049201E-01  1.084355E-01 -5.405770E+00

 displacements (vx,vy,vz) for set SENSOR and time  0.5859375E-02

      7572  2.657844E-01  6.999596E-02 -5.817983E+00

 displacements (vx,vy,vz) for set SENSOR and time  0.5898437E-02

      7572  2.071427E-01  5.443310E-02 -6.115690E+00

 displacements (vx,vy,vz) for set SENSOR and time  0.5937500E-02

      7572  1.607761E-01  7.452014E-02 -6.250221E+00

 displacements (vx,vy,vz) for set SENSOR and time  0.5976562E-02

      7572  1.253133E-01  1.150232E-01 -6.245556E+00

 displacements (vx,vy,vz) for set SENSOR and time  0.6015625E-02

      7572  1.031702E-01  1.476094E-01 -6.163259E+00

 displacements (vx,vy,vz) for set SENSOR and time  0.6054687E-02

      7572  1.210003E-01  1.654678E-01 -6.170157E+00

 displacements (vx,vy,vz) for set SENSOR and time  0.6093750E-02

      7572  1.642962E-01  1.720647E-01 -6.380334E+00

 displacements (vx,vy,vz) for set SENSOR and time  0.6132812E-02

      7572  1.854670E-01  1.644561E-01 -6.645876E+00

 displacements (vx,vy,vz) for set SENSOR and time  0.6171875E-02

      7572  1.826666E-01  1.481860E-01 -6.714550E+00

 displacements (vx,vy,vz) for set SENSOR and time  0.6210937E-02

      7572  1.784894E-01  1.408491E-01 -6.470590E+00

 displacements (vx,vy,vz) for set SENSOR and time  0.6250000E-02

      7572  1.717724E-01  1.544135E-01 -5.983569E+00

 displacements (vx,vy,vz) for set SENSOR and time  0.6289062E-02

      7572  1.732232E-01  1.905240E-01 -5.528051E+00

 displacements (vx,vy,vz) for set SENSOR and time  0.6328125E-02

      7572  2.022813E-01  2.386464E-01 -5.419068E+00

 displacements (vx,vy,vz) for set SENSOR and time  0.6367187E-02

      7572  2.374237E-01  2.714223E-01 -5.664084E+00

 displacements (vx,vy,vz) for set SENSOR and time  0.6406250E-02

      7572  2.547890E-01  2.707995E-01 -5.988584E+00

 displacements (vx,vy,vz) for set SENSOR and time  0.6445312E-02

      7572  2.745249E-01  2.555794E-01 -6.154171E+00

 displacements (vx,vy,vz) for set SENSOR and time  0.6484375E-02

      7572  3.133077E-01  2.522877E-01 -6.025143E+00

 displacements (vx,vy,vz) for set SENSOR and time  0.6523437E-02

      7572  3.575000E-01  2.601863E-01 -5.584345E+00

 displacements (vx,vy,vz) for set SENSOR and time  0.6562500E-02

      7572  3.946273E-01  2.744055E-01 -5.057486E+00

 displacements (vx,vy,vz) for set SENSOR and time  0.6601562E-02

      7572  4.148411E-01  3.061643E-01 -4.732983E+00

 displacements (vx,vy,vz) for set SENSOR and time  0.6640625E-02

      7572  4.077937E-01  3.523933E-01 -4.677235E+00

 displacements (vx,vy,vz) for set SENSOR and time  0.6679687E-02

      7572  3.828995E-01  3.848329E-01 -4.829154E+00

 displacements (vx,vy,vz) for set SENSOR and time  0.6718750E-02

      7572  3.534842E-01  3.875371E-01 -5.146153E+00

 displacements (vx,vy,vz) for set SENSOR and time  0.6757812E-02

      7572  3.126237E-01  3.718649E-01 -5.544302E+00

 displacements (vx,vy,vz) for set SENSOR and time  0.6796875E-02

      7572  2.546484E-01  3.512630E-01 -5.946496E+00

 displacements (vx,vy,vz) for set SENSOR and time  0.6835937E-02

      7572  1.900665E-01  3.307571E-01 -6.363416E+00

 displacements (vx,vy,vz) for set SENSOR and time  0.6875000E-02

      7572  1.325381E-01  3.149776E-01 -6.781955E+00

 displacements (vx,vy,vz) for set SENSOR and time  0.6914062E-02

      7572  9.875774E-02  3.006902E-01 -7.127781E+00

 displacements (vx,vy,vz) for set SENSOR and time  0.6953125E-02

      7572  1.043848E-01  2.719542E-01 -7.378374E+00

 displacements (vx,vy,vz) for set SENSOR and time  0.6992187E-02

      7572  1.426820E-01  2.240422E-01 -7.566332E+00

 displacements (vx,vy,vz) for set SENSOR and time  0.7031250E-02

      7572  1.869308E-01  1.778211E-01 -7.715663E+00

 displacements (vx,vy,vz) for set SENSOR and time  0.7070312E-02

      7572  2.147931E-01  1.527519E-01 -7.809221E+00

 displacements (vx,vy,vz) for set SENSOR and time  0.7109375E-02

      7572  2.196590E-01  1.444357E-01 -7.732449E+00

 displacements (vx,vy,vz) for set SENSOR and time  0.7148437E-02

      7572  2.099733E-01  1.425515E-01 -7.344233E+00

 displacements (vx,vy,vz) for set SENSOR and time  0.7187500E-02

      7572  2.019829E-01  1.469787E-01 -6.682055E+00

 displacements (vx,vy,vz) for set SENSOR and time  0.7226562E-02

      7572  2.049307E-01  1.559221E-01 -5.941533E+00

 displacements (vx,vy,vz) for set SENSOR and time  0.7265625E-02

      7572  2.149255E-01  1.625691E-01 -5.243040E+00

 displacements (vx,vy,vz) for set SENSOR and time  0.7304687E-02

      7572  2.219884E-01  1.674457E-01 -4.579291E+00

 displacements (vx,vy,vz) for set SENSOR and time  0.7343750E-02

      7572  2.150282E-01  1.734266E-01 -3.935598E+00

 displacements (vx,vy,vz) for set SENSOR and time  0.7382812E-02

      7572  1.831159E-01  1.723615E-01 -3.325069E+00

 displacements (vx,vy,vz) for set SENSOR and time  0.7421875E-02

      7572  1.242813E-01  1.535751E-01 -2.757129E+00

 displacements (vx,vy,vz) for set SENSOR and time  0.7460938E-02

      7572  5.663766E-02  1.215260E-01 -2.226394E+00

 displacements (vx,vy,vz) for set SENSOR and time  0.7500000E-02

      7572  7.179076E-03  9.580319E-02 -1.708084E+00

 displacements (vx,vy,vz) for set SENSOR and time  0.7539063E-02

      7572 -1.677255E-02  9.364404E-02 -1.193052E+00

 displacements (vx,vy,vz) for set SENSOR and time  0.7578125E-02

      7572 -2.624694E-02  1.141506E-01 -7.299880E-01

 displacements (vx,vy,vz) for set SENSOR and time  0.7617188E-02

      7572 -2.259027E-02  1.433155E-01 -3.660498E-01

 displacements (vx,vy,vz) for set SENSOR and time  0.7656250E-02

      7572 -2.345585E-03  1.713771E-01 -7.357463E-02

 displacements (vx,vy,vz) for set SENSOR and time  0.7695313E-02

      7572  2.027151E-02  1.946364E-01  1.825836E-01

 displacements (vx,vy,vz) for set SENSOR and time  0.7734375E-02

      7572  3.057760E-02  2.090772E-01  3.586958E-01

 displacements (vx,vy,vz) for set SENSOR and time  0.7773438E-02

      7572  3.337550E-02  2.195240E-01  4.076460E-01

 displacements (vx,vy,vz) for set SENSOR and time  0.7812500E-02

      7572  3.511037E-02  2.422129E-01  3.887943E-01

 displacements (vx,vy,vz) for set SENSOR and time  0.7851563E-02

      7572  3.747805E-02  2.811203E-01  4.128714E-01

 displacements (vx,vy,vz) for set SENSOR and time  0.7890625E-02

      7572  5.081857E-02  3.175183E-01  5.125928E-01

 displacements (vx,vy,vz) for set SENSOR and time  0.7929688E-02

      7572  8.099480E-02  3.343156E-01  6.249585E-01

 displacements (vx,vy,vz) for set SENSOR and time  0.7968750E-02

      7572  1.158395E-01  3.327817E-01  6.651481E-01

 displacements (vx,vy,vz) for set SENSOR and time  0.8007813E-02

      7572  1.436641E-01  3.209485E-01  5.794113E-01

 displacements (vx,vy,vz) for set SENSOR and time  0.8046875E-02

      7572  1.641437E-01  3.057914E-01  3.436383E-01

 displacements (vx,vy,vz) for set SENSOR and time  0.8085938E-02

      7572  1.816278E-01  2.989486E-01 -6.515890E-02

 displacements (vx,vy,vz) for set SENSOR and time  0.8125000E-02

      7572  2.055587E-01  3.109996E-01 -6.610240E-01

 displacements (vx,vy,vz) for set SENSOR and time  0.8164063E-02

      7572  2.410518E-01  3.368015E-01 -1.397806E+00

 displacements (vx,vy,vz) for set SENSOR and time  0.8203125E-02

      7572  2.750705E-01  3.594575E-01 -2.187105E+00

 displacements (vx,vy,vz) for set SENSOR and time  0.8242188E-02

      7572  2.949859E-01  3.692798E-01 -2.986550E+00

 displacements (vx,vy,vz) for set SENSOR and time  0.8281250E-02

      7572  3.077229E-01  3.697260E-01 -3.792718E+00

 displacements (vx,vy,vz) for set SENSOR and time  0.8320313E-02

      7572  3.203039E-01  3.680964E-01 -4.566439E+00

 displacements (vx,vy,vz) for set SENSOR and time  0.8359375E-02

      7572  3.270755E-01  3.685971E-01 -5.270742E+00

 displacements (vx,vy,vz) for set SENSOR and time  0.8398438E-02

      7572  3.290752E-01  3.711242E-01 -5.938392E+00

 displacements (vx,vy,vz) for set SENSOR and time  0.8437500E-02

      7572  3.381434E-01  3.736043E-01 -6.606427E+00

 displacements (vx,vy,vz) for set SENSOR and time  0.8476563E-02

      7572  3.579287E-01  3.784271E-01 -7.243995E+00

 displacements (vx,vy,vz) for set SENSOR and time  0.8515625E-02

      7572  3.833090E-01  3.917109E-01 -7.792864E+00

 displacements (vx,vy,vz) for set SENSOR and time  0.8554688E-02

      7572  4.136052E-01  4.119054E-01 -8.204569E+00

 displacements (vx,vy,vz) for set SENSOR and time  0.8593750E-02

      7572  4.478075E-01  4.279517E-01 -8.437157E+00

 displacements (vx,vy,vz) for set SENSOR and time  0.8632813E-02

      7572  4.748413E-01  4.314776E-01 -8.491138E+00

 displacements (vx,vy,vz) for set SENSOR and time  0.8671875E-02

      7572  4.851139E-01  4.228125E-01 -8.433530E+00

 displacements (vx,vy,vz) for set SENSOR and time  0.8710938E-02

      7572  4.856255E-01  4.077672E-01 -8.351403E+00

 displacements (vx,vy,vz) for set SENSOR and time  0.8750000E-02

      7572  4.910849E-01  3.941727E-01 -8.313562E+00

 displacements (vx,vy,vz) for set SENSOR and time  0.8789063E-02

      7572  5.059679E-01  3.852294E-01 -8.375410E+00

 displacements (vx,vy,vz) for set SENSOR and time  0.8828125E-02

      7572  5.235620E-01  3.757944E-01 -8.571289E+00

 displacements (vx,vy,vz) for set SENSOR and time  0.8867188E-02

      7572  5.348937E-01  3.618635E-01 -8.888853E+00

 displacements (vx,vy,vz) for set SENSOR and time  0.8906250E-02

      7572  5.337674E-01  3.471928E-01 -9.265882E+00

 displacements (vx,vy,vz) for set SENSOR and time  0.8945313E-02

      7572  5.199069E-01  3.348057E-01 -9.630465E+00

 displacements (vx,vy,vz) for set SENSOR and time  0.8984375E-02

      7572  4.979277E-01  3.218497E-01 -9.962639E+00

 displacements (vx,vy,vz) for set SENSOR and time  0.9023438E-02

      7572  4.722116E-01  3.054904E-01 -1.030566E+01

 displacements (vx,vy,vz) for set SENSOR and time  0.9062500E-02

      7572  4.475198E-01  2.849544E-01 -1.070414E+01

 displacements (vx,vy,vz) for set SENSOR and time  0.9101563E-02

      7572  4.288710E-01  2.603054E-01 -1.114968E+01

 displacements (vx,vy,vz) for set SENSOR and time  0.9140625E-02

      7572  4.138459E-01  2.368546E-01 -1.157726E+01

 displacements (vx,vy,vz) for set SENSOR and time  0.9179688E-02

      7572  3.953267E-01  2.253153E-01 -1.187985E+01

 displacements (vx,vy,vz) for set SENSOR and time  0.9218750E-02

      7572  3.733940E-01  2.306335E-01 -1.195281E+01

 displacements (vx,vy,vz) for set SENSOR and time  0.9257813E-02

      7572  3.505236E-01  2.448872E-01 -1.177301E+01

 displacements (vx,vy,vz) for set SENSOR and time  0.9296875E-02

      7572  3.220490E-01  2.562360E-01 -1.142344E+01

 displacements (vx,vy,vz) for set SENSOR and time  0.9335938E-02

      7572  2.868805E-01  2.615175E-01 -1.102332E+01

 displacements (vx,vy,vz) for set SENSOR and time  0.9375000E-02

      7572  2.555472E-01  2.658926E-01 -1.065420E+01

 displacements (vx,vy,vz) for set SENSOR and time  0.9414063E-02

      7572  2.365008E-01  2.748854E-01 -1.034980E+01

 displacements (vx,vy,vz) for set SENSOR and time  0.9453125E-02

      7572  2.282285E-01  2.928999E-01 -1.011933E+01

 displacements (vx,vy,vz) for set SENSOR and time  0.9492188E-02

      7572  2.287384E-01  3.234761E-01 -9.961875E+00

 displacements (vx,vy,vz) for set SENSOR and time  0.9531250E-02

      7572  2.398864E-01  3.627355E-01 -9.867403E+00

 displacements (vx,vy,vz) for set SENSOR and time  0.9570313E-02

      7572  2.625822E-01  3.979778E-01 -9.820724E+00

 displacements (vx,vy,vz) for set SENSOR and time  0.9609375E-02

      7572  2.949102E-01  4.187954E-01 -9.817155E+00

 displacements (vx,vy,vz) for set SENSOR and time  0.9648438E-02

      7572  3.320664E-01  4.239427E-01 -9.865823E+00

 displacements (vx,vy,vz) for set SENSOR and time  0.9687500E-02

      7572  3.671202E-01  4.160643E-01 -9.958461E+00

 displacements (vx,vy,vz) for set SENSOR and time  0.9726563E-02

      7572  3.957055E-01  3.985545E-01 -1.004127E+01

 displacements (vx,vy,vz) for set SENSOR and time  0.9765625E-02

      7572  4.174338E-01  3.788832E-01 -1.004676E+01