
 displacements (vx,vy,vz) for set SENSOR and time  0.3906250E-04

      7572 -2.396931E-02  2.636281E-02 -6.077564E-02

 displacements (vx,vy,vz) for set SENSOR and time  0.7812500E-04

      7572 -5.644198E-02  6.097447E-02 -2.535099E-01

 displacements (vx,vy,vz) for set SENSOR and time  0.1171875E-03

      7572  7.832109E-02 -8.572183E-02  4.131411E-02

 displacements (vx,vy,vz) for set SENSOR and time  0.1562500E-03

      7572  7.492922E-02 -7.554604E-02  7.966805E-01

 displacements (vx,vy,vz) for set SENSOR and time  0.1953125E-03

      7572 -2.014952E-01  2.084769E-01  6.050050E-01

 displacements (vx,vy,vz) for set SENSOR and time  0.2343750E-03

      7572 -3.573846E-01  3.427020E-01 -1.314455E+00

 displacements (vx,vy,vz) for set SENSOR and time  0.2734375E-03

      7572 -2.008643E-01  2.018838E-01 -3.507348E+00

 displacements (vx,vy,vz) for set SENSOR and time  0.3125000E-03

      7572  3.895375E-02  4.710332E-03 -4.289905E+00

 displacements (vx,vy,vz) for set SENSOR and time  0.3515625E-03

      7572  2.177191E-01 -2.456108E-01 -3.496405E+00

 displacements (vx,vy,vz) for set SENSOR and time  0.3906250E-03

      7572  3.370229E-01 -4.588396E-01 -1.896326E+00

 displacements (vx,vy,vz) for set SENSOR and time  0.4296875E-03

      7572  3.650231E-01 -3.459182E-01 -4.438172E-01

 displacements (vx,vy,vz) for set SENSOR and time  0.4687500E-03

      7572  3.434500E-01 -1.176199E-01  3.224241E-01

 displacements (vx,vy,vz) for set SENSOR and time  0.5078125E-03

      7572  3.592879E-01 -2.280574E-01  5.914064E-01

 displacements (vx,vy,vz) for set SENSOR and time  0.5468750E-03

      7572  4.107783E-01 -4.881405E-01  8.880748E-01

 displacements (vx,vy,vz) for set SENSOR and time  0.5859375E-03

      7572  4.650009E-01 -5.271032E-01  1.784044E+00

 displacements (vx,vy,vz) for set SENSOR and time  0.6250000E-03

      7572  4.867072E-01 -5.239611E-01  3.386284E+00

 displacements (vx,vy,vz) for set SENSOR and time  0.6640625E-03

      7572  4.760154E-01 -6.440671E-01  5.100777E+00

 displacements (vx,vy,vz) for set SENSOR and time  0.7031250E-03

      7572  4.881890E-01 -6.539156E-01  6.764422E+00

 displacements (vx,vy,vz) for set SENSOR and time  0.7421875E-03

      7572  4.549222E-01 -5.164431E-01  8.618944E+00

 displacements (vx,vy,vz) for set SENSOR and time  0.7812500E-03

      7572  3.312228E-01 -4.894564E-01  1.001990E+01

 displacements (vx,vy,vz) for set SENSOR and time  0.8203125E-03

      7572  3.557367E-01 -5.791692E-01  1.062754E+01

 displacements (vx,vy,vz) for set SENSOR and time  0.8593750E-03

      7572  5.367635E-01 -5.551195E-01  1.143360E+01

 displacements (vx,vy,vz) for set SENSOR and time  0.8984375E-03

      7572  4.648293E-01 -4.071192E-01  1.246171E+01

 displacements (vx,vy,vz) for set SENSOR and time  0.9375000E-03

      7572  2.064651E-01 -3.408214E-01  1.254537E+01

 displacements (vx,vy,vz) for set SENSOR and time  0.9765625E-03

      7572  2.473791E-01 -3.704910E-01  1.205706E+01

 displacements (vx,vy,vz) for set SENSOR and time  0.1015625E-02

      7572  4.339027E-01 -3.071200E-01  1.222833E+01

 displacements (vx,vy,vz) for set SENSOR and time  0.1054688E-02

      7572  3.447030E-01 -1.889806E-01  1.279181E+01

 displacements (vx,vy,vz) for set SENSOR and time  0.1093750E-02

      7572  1.916406E-01 -2.217140E-01  1.294415E+01

 displacements (vx,vy,vz) for set SENSOR and time  0.1132813E-02

      7572  2.375476E-01 -2.893714E-01  1.271316E+01

 displacements (vx,vy,vz) for set SENSOR and time  0.1171875E-02

      7572  2.929797E-01 -1.655960E-01  1.244760E+01

 displacements (vx,vy,vz) for set SENSOR and time  0.1210938E-02

      7572  2.704687E-01 -1.193450E-02  1.245696E+01

 displacements (vx,vy,vz) for set SENSOR and time  0.1250000E-02

      7572  2.613725E-01 -3.833539E-02  1.273915E+01

 displacements (vx,vy,vz) for set SENSOR and time  0.1289063E-02

      7572  2.365899E-01 -1.128060E-01  1.287719E+01

 displacements (vx,vy,vz) for set SENSOR and time  0.1328125E-02

      7572  2.187007E-01 -9.798672E-02  1.287958E+01

 displacements (vx,vy,vz) for set SENSOR and time  0.1367188E-02

      7572  2.483307E-01 -2.648696E-02  1.313106E+01

 displacements (vx,vy,vz) for set SENSOR and time  0.1406250E-02

      7572  2.099828E-01  7.140876E-02  1.348064E+01

 displacements (vx,vy,vz) for set SENSOR and time  0.1445313E-02

      7572  9.406414E-02  1.120933E-01  1.361683E+01

 displacements (vx,vy,vz) for set SENSOR and time  0.1484375E-02

      7572  3.686899E-02  3.307945E-02  1.368838E+01

 displacements (vx,vy,vz) for set SENSOR and time  0.1523438E-02

      7572  5.853861E-02 -2.872842E-02  1.400319E+01

 displacements (vx,vy,vz) for set SENSOR and time  0.1562500E-02

      7572  1.345040E-01 -7.447060E-03  1.466403E+01

 displacements (vx,vy,vz) for set SENSOR and time  0.1601563E-02

      7572  2.608569E-01 -1.134933E-02  1.512430E+01

 displacements (vx,vy,vz) for set SENSOR and time  0.1640625E-02

      7572  3.653364E-01  1.812983E-02  1.461668E+01

 displacements (vx,vy,vz) for set SENSOR and time  0.1679688E-02

      7572  4.205508E-01  1.621770E-01  1.381886E+01

 displacements (vx,vy,vz) for set SENSOR and time  0.1718750E-02

      7572  4.300268E-01  2.040629E-01  1.430779E+01

 displacements (vx,vy,vz) for set SENSOR and time  0.1757813E-02

      7572  3.330791E-01  1.962393E-02  1.606767E+01

 displacements (vx,vy,vz) for set SENSOR and time  0.1796875E-02

      7572  2.255661E-01 -1.685894E-01  1.786551E+01

 displacements (vx,vy,vz) for set SENSOR and time  0.1835937E-02

      7572  2.820115E-01 -2.434543E-01  1.916288E+01

 displacements (vx,vy,vz) for set SENSOR and time  0.1875000E-02

      7572  3.454835E-01 -3.135885E-01  1.977176E+01

 displacements (vx,vy,vz) for set SENSOR and time  0.1914062E-02

      7572  1.886143E-01 -3.774525E-01  1.956228E+01

 displacements (vx,vy,vz) for set SENSOR and time  0.1953125E-02

      7572 -1.041549E-02 -3.870762E-01  1.920021E+01

 displacements (vx,vy,vz) for set SENSOR and time  0.1992187E-02

      7572 -1.703202E-03 -4.337794E-01  1.916906E+01

 displacements (vx,vy,vz) for set SENSOR and time  0.2031250E-02

      7572  1.166379E-01 -5.453980E-01  1.882419E+01

 displacements (vx,vy,vz) for set SENSOR and time  0.2070312E-02

      7572  1.573897E-01 -5.845538E-01  1.779799E+01

 displacements (vx,vy,vz) for set SENSOR and time  0.2109375E-02

      7572  1.445254E-01 -4.804860E-01  1.677892E+01

 displacements (vx,vy,vz) for set SENSOR and time  0.2148437E-02

      7572  1.862908E-01 -3.283945E-01  1.634279E+01

 displacements (vx,vy,vz) for set SENSOR and time  0.2187500E-02

      7572  2.707846E-01 -2.420945E-01  1.639991E+01

 displacements (vx,vy,vz) for set SENSOR and time  0.2226562E-02

      7572  3.134710E-01 -2.444635E-01  1.671783E+01

 displacements (vx,vy,vz) for set SENSOR and time  0.2265625E-02

      7572  3.188157E-01 -2.943645E-01  1.717109E+01

 displacements (vx,vy,vz) for set SENSOR and time  0.2304687E-02

      7572  3.207948E-01 -3.507970E-01  1.756879E+01

 displacements (vx,vy,vz) for set SENSOR and time  0.2343750E-02

      7572  2.772862E-01 -3.812740E-01  1.758520E+01

 displacements (vx,vy,vz) for set SENSOR and time  0.2382812E-02

      7572  2.266328E-01 -3.571896E-01  1.714850E+01

 displacements (vx,vy,vz) for set SENSOR and time  0.2421875E-02

      7572  2.855477E-01 -3.112189E-01  1.663312E+01

 displacements (vx,vy,vz) for set SENSOR and time  0.2460937E-02

      7572  3.819205E-01 -3.290622E-01  1.621105E+01

 displacements (vx,vy,vz) for set SENSOR and time  0.2500000E-02

      7572  3.747051E-01 -4.058474E-01  1.565455E+01

 displacements (vx,vy,vz) for set SENSOR and time  0.2539062E-02

      7572  3.211631E-01 -4.345858E-01  1.499513E+01

 displacements (vx,vy,vz) for set SENSOR and time  0.2578125E-02

      7572  2.629074E-01 -4.059210E-01  1.436381E+01

 displacements (vx,vy,vz) for set SENSOR and time  0.2617187E-02

      7572  1.041603E-01 -4.413286E-01  1.355800E+01

 displacements (vx,vy,vz) for set SENSOR and time  0.2656250E-02

      7572 -1.113372E-01 -5.754817E-01  1.271886E+01

 displacements (vx,vy,vz) for set SENSOR and time  0.2695312E-02

      7572 -2.450169E-01 -7.033116E-01  1.244889E+01

 displacements (vx,vy,vz) for set SENSOR and time  0.2734375E-02

      7572 -3.054749E-01 -7.579632E-01  1.284142E+01

 displacements (vx,vy,vz) for set SENSOR and time  0.2773437E-02

      7572 -3.047839E-01 -7.601775E-01  1.352553E+01

 displacements (vx,vy,vz) for set SENSOR and time  0.2812500E-02

      7572 -1.728593E-01 -7.301604E-01  1.423523E+01

 displacements (vx,vy,vz) for set SENSOR and time  0.2851562E-02

      7572  2.174841E-02 -6.864982E-01  1.454711E+01

 displacements (vx,vy,vz) for set SENSOR and time  0.2890625E-02

      7572  1.086085E-01 -6.612156E-01  1.414415E+01

 displacements (vx,vy,vz) for set SENSOR and time  0.2929687E-02

      7572  7.670579E-02 -6.634012E-01  1.349674E+01

 displacements (vx,vy,vz) for set SENSOR and time  0.2968750E-02

      7572  6.150266E-02 -6.915483E-01  1.323612E+01

 displacements (vx,vy,vz) for set SENSOR and time  0.3007812E-02

      7572  1.395217E-01 -7.340800E-01  1.351733E+01

 displacements (vx,vy,vz) for set SENSOR and time  0.3046875E-02

      7572  2.528993E-01 -7.411059E-01  1.449837E+01

 displacements (vx,vy,vz) for set SENSOR and time  0.3085937E-02

      7572  3.119507E-01 -7.011321E-01  1.611309E+01

 displacements (vx,vy,vz) for set SENSOR and time  0.3125000E-02

      7572  3.205468E-01 -6.731785E-01  1.745626E+01

 displacements (vx,vy,vz) for set SENSOR and time  0.3164062E-02

      7572  3.477247E-01 -6.518551E-01  1.777849E+01

 displacements (vx,vy,vz) for set SENSOR and time  0.3203125E-02

      7572  4.167735E-01 -5.741929E-01  1.748750E+01

 displacements (vx,vy,vz) for set SENSOR and time  0.3242187E-02

      7572  4.878311E-01 -4.814761E-01  1.729858E+01

 displacements (vx,vy,vz) for set SENSOR and time  0.3281250E-02

      7572  5.001726E-01 -4.512710E-01  1.743847E+01

 displacements (vx,vy,vz) for set SENSOR and time  0.3320312E-02

      7572  4.363056E-01 -4.432317E-01  1.799029E+01

 displacements (vx,vy,vz) for set SENSOR and time  0.3359375E-02

      7572  3.769338E-01 -4.051169E-01  1.891452E+01

 displacements (vx,vy,vz) for set SENSOR and time  0.3398437E-02

      7572  4.005986E-01 -3.812015E-01  1.983218E+01

 displacements (vx,vy,vz) for set SENSOR and time  0.3437500E-02

      7572  4.569012E-01 -4.065986E-01  2.048027E+01

 displacements (vx,vy,vz) for set SENSOR and time  0.3476562E-02

      7572  4.642882E-01 -4.557337E-01  2.094170E+01

 displacements (vx,vy,vz) for set SENSOR and time  0.3515625E-02

      7572  4.371278E-01 -5.094966E-01  2.127682E+01

 displacements (vx,vy,vz) for set SENSOR and time  0.3554687E-02

      7572  4.254941E-01 -5.563296E-01  2.149462E+01

 displacements (vx,vy,vz) for set SENSOR and time  0.3593750E-02

      7572  4.355687E-01 -5.612292E-01  2.164714E+01

 displacements (vx,vy,vz) for set SENSOR and time  0.3632812E-02

      7572  4.346383E-01 -4.907032E-01  2.163967E+01

 displacements (vx,vy,vz) for set SENSOR and time  0.3671875E-02

      7572  3.976296E-01 -3.649497E-01  2.139839E+01

 displacements (vx,vy,vz) for set SENSOR and time  0.3710937E-02

      7572  3.599173E-01 -2.742425E-01  2.105631E+01

 displacements (vx,vy,vz) for set SENSOR and time  0.3750000E-02

      7572  3.624063E-01 -2.790304E-01  2.057674E+01

 displacements (vx,vy,vz) for set SENSOR and time  0.3789062E-02

      7572  3.667677E-01 -3.117809E-01  1.983999E+01

 displacements (vx,vy,vz) for set SENSOR and time  0.3828125E-02

      7572  3.408303E-01 -2.923984E-01  1.915214E+01

 displacements (vx,vy,vz) for set SENSOR and time  0.3867187E-02

      7572  3.196691E-01 -2.512843E-01  1.875546E+01

 displacements (vx,vy,vz) for set SENSOR and time  0.3906250E-02

      7572  2.976622E-01 -2.126238E-01  1.830789E+01

 displacements (vx,vy,vz) for set SENSOR and time  0.3945312E-02

      7572  2.398718E-01 -1.357426E-01  1.769295E+01

 displacements (vx,vy,vz) for set SENSOR and time  0.3984375E-02

      7572  1.909182E-01 -6.527620E-02  1.739423E+01

 displacements (vx,vy,vz) for set SENSOR and time  0.4023437E-02

      7572  2.013502E-01 -1.071928E-01  1.756558E+01

 displacements (vx,vy,vz) for set SENSOR and time  0.4062500E-02

      7572  2.501693E-01 -2.304582E-01  1.785837E+01

 displacements (vx,vy,vz) for set SENSOR and time  0.4101562E-02

      7572  3.135678E-01 -3.215835E-01  1.818948E+01

 displacements (vx,vy,vz) for set SENSOR and time  0.4140625E-02

      7572  3.649875E-01 -3.826655E-01  1.870302E+01

 displacements (vx,vy,vz) for set SENSOR and time  0.4179687E-02

      7572  3.563725E-01 -4.767453E-01  1.929689E+01

 displacements (vx,vy,vz) for set SENSOR and time  0.4218750E-02

      7572  3.060317E-01 -5.738014E-01  1.979282E+01

 displacements (vx,vy,vz) for set SENSOR and time  0.4257812E-02

      7572  2.801703E-01 -6.062924E-01  2.020275E+01

 displacements (vx,vy,vz) for set SENSOR and time  0.4296875E-02

      7572  2.769494E-01 -5.838099E-01  2.058477E+01

 displacements (vx,vy,vz) for set SENSOR and time  0.4335937E-02

      7572  2.635369E-01 -5.549860E-01  2.082950E+01

 displacements (vx,vy,vz) for set SENSOR and time  0.4375000E-02

      7572  2.591571E-01 -5.374928E-01  2.078021E+01

 displacements (vx,vy,vz) for set SENSOR and time  0.4414062E-02

      7572  2.884132E-01 -5.376414E-01  2.069170E+01

 displacements (vx,vy,vz) for set SENSOR and time  0.4453125E-02

      7572  3.317525E-01 -5.680678E-01  2.115554E+01

 displacements (vx,vy,vz) for set SENSOR and time  0.4492187E-02

      7572  3.544558E-01 -6.211141E-01  2.221715E+01

 displacements (vx,vy,vz) for set SENSOR and time  0.4531250E-02

      7572  3.456575E-01 -6.740393E-01  2.322276E+01

 displacements (vx,vy,vz) for set SENSOR and time  0.4570312E-02

      7572  3.304444E-01 -7.173293E-01  2.374014E+01

 displacements (vx,vy,vz) for set SENSOR and time  0.4609375E-02

      7572  3.358459E-01 -7.541599E-01  2.380097E+01

 displacements (vx,vy,vz) for set SENSOR and time  0.4648437E-02

      7572  3.524583E-01 -7.953840E-01  2.340133E+01

 displacements (vx,vy,vz) for set SENSOR and time  0.4687500E-02

      7572  3.598929E-01 -8.470410E-01  2.256347E+01

 displacements (vx,vy,vz) for set SENSOR and time  0.4726562E-02

      7572  3.581612E-01 -8.797415E-01  2.153538E+01

 displacements (vx,vy,vz) for set SENSOR and time  0.4765625E-02

      7572  3.495181E-01 -8.570276E-01  2.060047E+01

 displacements (vx,vy,vz) for set SENSOR and time  0.4804687E-02

      7572  3.231208E-01 -8.019267E-01  2.007255E+01

 displacements (vx,vy,vz) for set SENSOR and time  0.4843750E-02

      7572  2.657449E-01 -7.681559E-01  2.017886E+01

 displacements (vx,vy,vz) for set SENSOR and time  0.4882812E-02

      7572  1.832607E-01 -7.671586E-01  2.065072E+01

 displacements (vx,vy,vz) for set SENSOR and time  0.4921875E-02

      7572  1.069145E-01 -7.825738E-01  2.100289E+01

 displacements (vx,vy,vz) for set SENSOR and time  0.4960937E-02

      7572  5.296820E-02 -8.011324E-01  2.115044E+01

 displacements (vx,vy,vz) for set SENSOR and time  0.5000000E-02

      7572  8.232454E-03 -7.943796E-01  2.120965E+01

 displacements (vx,vy,vz) for set SENSOR and time  0.5039062E-02

      7572 -1.847579E-02 -7.382364E-01  2.115859E+01

 displacements (vx,vy,vz) for set SENSOR and time  0.5078125E-02

      7572 -1.173061E-02 -6.589109E-01  2.108399E+01

 displacements (vx,vy,vz) for set SENSOR and time  0.5117187E-02

      7572 -1.408462E-02 -6.092886E-01  2.124481E+01

 displacements (vx,vy,vz) for set SENSOR and time  0.5156250E-02

      7572 -6.524825E-02 -6.109569E-01  2.176273E+01

 displacements (vx,vy,vz) for set SENSOR and time  0.5195312E-02

      7572 -1.207680E-01 -6.408361E-01  2.252553E+01

 displacements (vx,vy,vz) for set SENSOR and time  0.5234375E-02

      7572 -1.254824E-01 -6.628326E-01  2.330941E+01

 displacements (vx,vy,vz) for set SENSOR and time  0.5273437E-02

      7572 -9.329273E-02 -6.622272E-01  2.399406E+01

 displacements (vx,vy,vz) for set SENSOR and time  0.5312500E-02

      7572 -6.729694E-02 -6.374618E-01  2.471836E+01

 displacements (vx,vy,vz) for set SENSOR and time  0.5351562E-02

      7572 -7.165653E-02 -5.805339E-01  2.566059E+01

 displacements (vx,vy,vz) for set SENSOR and time  0.5390625E-02

      7572 -1.009714E-01 -5.076865E-01  2.680797E+01

 displacements (vx,vy,vz) for set SENSOR and time  0.5429687E-02

      7572 -1.233325E-01 -4.656847E-01  2.808102E+01

 displacements (vx,vy,vz) for set SENSOR and time  0.5468750E-02

      7572 -1.188834E-01 -4.618708E-01  2.933457E+01

 displacements (vx,vy,vz) for set SENSOR and time  0.5507812E-02

      7572 -1.027354E-01 -4.556860E-01  3.026503E+01

 displacements (vx,vy,vz) for set SENSOR and time  0.5546875E-02

      7572 -9.169849E-02 -4.351512E-01  3.070703E+01

 displacements (vx,vy,vz) for set SENSOR and time  0.5585937E-02

      7572 -8.921590E-02 -4.176063E-01  3.081651E+01

 displacements (vx,vy,vz) for set SENSOR and time  0.5625000E-02

      7572 -1.017772E-01 -3.995248E-01  3.077083E+01

 displacements (vx,vy,vz) for set SENSOR and time  0.5664062E-02

      7572 -1.319419E-01 -3.804873E-01  3.062205E+01

 displacements (vx,vy,vz) for set SENSOR and time  0.5703125E-02

      7572 -1.669905E-01 -3.819267E-01  3.039171E+01

 displacements (vx,vy,vz) for set SENSOR and time  0.5742187E-02

      7572 -1.893547E-01 -4.033362E-01  3.003436E+01

 displacements (vx,vy,vz) for set SENSOR and time  0.5781250E-02

      7572 -1.893087E-01 -4.256248E-01  2.952522E+01

 displacements (vx,vy,vz) for set SENSOR and time  0.5820312E-02

      7572 -1.680819E-01 -4.557274E-01  2.901395E+01

 displacements (vx,vy,vz) for set SENSOR and time  0.5859375E-02

      7572 -1.285974E-01 -5.117429E-01  2.859545E+01

 displacements (vx,vy,vz) for set SENSOR and time  0.5898437E-02

      7572 -7.456610E-02 -5.843699E-01  2.813145E+01

 displacements (vx,vy,vz) for set SENSOR and time  0.5937500E-02

      7572 -2.752129E-02 -6.411312E-01  2.754280E+01

 displacements (vx,vy,vz) for set SENSOR and time  0.5976562E-02

      7572 -1.138033E-02 -6.576507E-01  2.696733E+01

 displacements (vx,vy,vz) for set SENSOR and time  0.6015625E-02

      7572 -1.867517E-02 -6.484286E-01  2.651547E+01

 displacements (vx,vy,vz) for set SENSOR and time  0.6054687E-02

      7572 -3.448366E-02 -6.538628E-01  2.614444E+01

 displacements (vx,vy,vz) for set SENSOR and time  0.6093750E-02

      7572 -6.726494E-02 -6.814816E-01  2.576401E+01

 displacements (vx,vy,vz) for set SENSOR and time  0.6132812E-02

      7572 -1.198444E-01 -7.022848E-01  2.532217E+01

 displacements (vx,vy,vz) for set SENSOR and time  0.6171875E-02

      7572 -1.748429E-01 -7.095585E-01  2.487206E+01

 displacements (vx,vy,vz) for set SENSOR and time  0.6210937E-02

      7572 -2.170895E-01 -7.189409E-01  2.457934E+01

 displacements (vx,vy,vz) for set SENSOR and time  0.6250000E-02

      7572 -2.312899E-01 -7.300080E-01  2.456045E+01

 displacements (vx,vy,vz) for set SENSOR and time  0.6289062E-02

      7572 -2.069122E-01 -7.481360E-01  2.472747E+01

 displacements (vx,vy,vz) for set SENSOR and time  0.6328125E-02

      7572 -1.642345E-01 -7.974415E-01  2.485326E+01

 displacements (vx,vy,vz) for set SENSOR and time  0.6367187E-02

      7572 -1.303550E-01 -8.719346E-01  2.477036E+01

 displacements (vx,vy,vz) for set SENSOR and time  0.6406250E-02

      7572 -9.929300E-02 -9.349555E-01  2.446875E+01

 displacements (vx,vy,vz) for set SENSOR and time  0.6445312E-02

      7572 -5.291876E-02 -9.733593E-01  2.402074E+01

 displacements (vx,vy,vz) for set SENSOR and time  0.6484375E-02

      7572  5.018760E-03 -9.925387E-01  2.348509E+01

 displacements (vx,vy,vz) for set SENSOR and time  0.6523437E-02

      7572  5.484126E-02 -9.849769E-01  2.289472E+01

 displacements (vx,vy,vz) for set SENSOR and time  0.6562500E-02

      7572  8.612108E-02 -9.515557E-01  2.226756E+01

 displacements (vx,vy,vz) for set SENSOR and time  0.6601562E-02

      7572  1.128754E-01 -9.135776E-01  2.163348E+01

 displacements (vx,vy,vz) for set SENSOR and time  0.6640625E-02

      7572  1.515752E-01 -8.829739E-01  2.108197E+01

 displacements (vx,vy,vz) for set SENSOR and time  0.6679687E-02

      7572  1.921937E-01 -8.577575E-01  2.072219E+01

 displacements (vx,vy,vz) for set SENSOR and time  0.6718750E-02

      7572  2.247505E-01 -8.374762E-01  2.058051E+01

 displacements (vx,vy,vz) for set SENSOR and time  0.6757812E-02

      7572  2.631139E-01 -8.198300E-01  2.057613E+01

 displacements (vx,vy,vz) for set SENSOR and time  0.6796875E-02

      7572  3.067647E-01 -8.077178E-01  2.056169E+01

 displacements (vx,vy,vz) for set SENSOR and time  0.6835937E-02

      7572  3.347183E-01 -8.169471E-01  2.042167E+01

 displacements (vx,vy,vz) for set SENSOR and time  0.6875000E-02

      7572  3.514706E-01 -8.463914E-01  2.021636E+01

 displacements (vx,vy,vz) for set SENSOR and time  0.6914062E-02

      7572  3.745538E-01 -8.670302E-01  2.011099E+01

 displacements (vx,vy,vz) for set SENSOR and time  0.6953125E-02

      7572  3.939489E-01 -8.640485E-01  2.008754E+01

 displacements (vx,vy,vz) for set SENSOR and time  0.6992187E-02

      7572  3.948760E-01 -8.516343E-01  1.993867E+01

 displacements (vx,vy,vz) for set SENSOR and time  0.7031250E-02

      7572  3.827596E-01 -8.393524E-01  1.959039E+01

 displacements (vx,vy,vz) for set SENSOR and time  0.7070312E-02

      7572  3.639127E-01 -8.227309E-01  1.918895E+01

 displacements (vx,vy,vz) for set SENSOR and time  0.7109375E-02

      7572  3.391997E-01 -8.005554E-01  1.888014E+01

 displacements (vx,vy,vz) for set SENSOR and time  0.7148437E-02

      7572  3.111527E-01 -7.742204E-01  1.871128E+01

 displacements (vx,vy,vz) for set SENSOR and time  0.7187500E-02

      7572  2.789341E-01 -7.422261E-01  1.869297E+01

 displacements (vx,vy,vz) for set SENSOR and time  0.7226562E-02

      7572  2.433542E-01 -7.061153E-01  1.880556E+01

 displacements (vx,vy,vz) for set SENSOR and time  0.7265625E-02

      7572  2.095680E-01 -6.710971E-01  1.897484E+01

 displacements (vx,vy,vz) for set SENSOR and time  0.7304687E-02

      7572  1.723291E-01 -6.399561E-01  1.909416E+01

 displacements (vx,vy,vz) for set SENSOR and time  0.7343750E-02

      7572  1.216296E-01 -6.094709E-01  1.909856E+01

 displacements (vx,vy,vz) for set SENSOR and time  0.7382812E-02

      7572  6.400399E-02 -5.734631E-01  1.905698E+01

 displacements (vx,vy,vz) for set SENSOR and time  0.7421875E-02

      7572  1.794410E-02 -5.330578E-01  1.912650E+01

 displacements (vx,vy,vz) for set SENSOR and time  0.7460938E-02

      7572 -4.336224E-03 -4.957798E-01  1.936797E+01

 displacements (vx,vy,vz) for set SENSOR and time  0.7500000E-02

      7572 -5.322789E-03 -4.615016E-01  1.971713E+01

 displacements (vx,vy,vz) for set SENSOR and time  0.7539063E-02

      7572 -6.465621E-04 -4.274305E-01  2.014283E+01

 displacements (vx,vy,vz) for set SENSOR and time  0.7578125E-02

      7572 -2.947301E-03 -4.014626E-01  2.067790E+01

 displacements (vx,vy,vz) for set SENSOR and time  0.7617188E-02

      7572 -8.802444E-03 -3.877969E-01  2.130541E+01

 displacements (vx,vy,vz) for set SENSOR and time  0.7656250E-02

      7572 -1.008612E-02 -3.769740E-01  2.194359E+01

 displacements (vx,vy,vz) for set SENSOR and time  0.7695313E-02

      7572 -6.281884E-03 -3.665194E-01  2.251211E+01

 displacements (vx,vy,vz) for set SENSOR and time  0.7734375E-02

      7572 -3.110939E-03 -3.627176E-01  2.294787E+01

 displacements (vx,vy,vz) for set SENSOR and time  0.7773438E-02

      7572 -1.026670E-02 -3.611036E-01  2.320712E+01

 displacements (vx,vy,vz) for set SENSOR and time  0.7812500E-02

      7572 -3.073728E-02 -3.603785E-01  2.328537E+01

 displacements (vx,vy,vz) for set SENSOR and time  0.7851563E-02

      7572 -5.071892E-02 -3.811311E-01  2.322097E+01

 displacements (vx,vy,vz) for set SENSOR and time  0.7890625E-02

      7572 -5.703856E-02 -4.375015E-01  2.308357E+01

 displacements (vx,vy,vz) for set SENSOR and time  0.7929688E-02

      7572 -5.192595E-02 -5.117472E-01  2.293594E+01

 displacements (vx,vy,vz) for set SENSOR and time  0.7968750E-02

      7572 -3.693614E-02 -5.774286E-01  2.278822E+01

 displacements (vx,vy,vz) for set SENSOR and time  0.8007813E-02

      7572 -8.129089E-03 -6.251070E-01  2.262291E+01

 displacements (vx,vy,vz) for set SENSOR and time  0.8046875E-02

      7572  2.725398E-02 -6.581168E-01  2.244774E+01

 displacements (vx,vy,vz) for set SENSOR and time  0.8085938E-02

      7572  5.703754E-02 -6.818110E-01  2.227552E+01

 displacements (vx,vy,vz) for set SENSOR and time  0.8125000E-02

      7572  8.199751E-02 -6.992654E-01  2.209969E+01

 displacements (vx,vy,vz) for set SENSOR and time  0.8164063E-02

      7572  1.074965E-01 -7.106769E-01  2.193825E+01

 displacements (vx,vy,vz) for set SENSOR and time  0.8203125E-02

      7572  1.295473E-01 -7.152464E-01  2.184930E+01

 displacements (vx,vy,vz) for set SENSOR and time  0.8242188E-02

      7572  1.401642E-01 -7.099233E-01  2.187172E+01

 displacements (vx,vy,vz) for set SENSOR and time  0.8281250E-02

      7572  1.377116E-01 -6.918147E-01  2.197240E+01

 displacements (vx,vy,vz) for set SENSOR and time  0.8320313E-02

      7572  1.303500E-01 -6.702144E-01  2.203554E+01

 displacements (vx,vy,vz) for set SENSOR and time  0.8359375E-02

      7572  1.294570E-01 -6.636201E-01  2.190065E+01

 displacements (vx,vy,vz) for set SENSOR and time  0.8398438E-02

      7572  1.354580E-01 -6.757943E-01  2.146599E+01

 displacements (vx,vy,vz) for set SENSOR and time  0.8437500E-02

      7572  1.359213E-01 -6.908881E-01  2.078060E+01

 displacements (vx,vy,vz) for set SENSOR and time  0.8476563E-02

      7572  1.191670E-01 -6.963346E-01  2.002077E+01

 displacements (vx,vy,vz) for set SENSOR and time  0.8515625E-02

      7572  8.115239E-02 -6.951653E-01  1.937236E+01

 displacements (vx,vy,vz) for set SENSOR and time  0.8554688E-02

      7572  2.531503E-02 -6.999183E-01  1.892225E+01

 displacements (vx,vy,vz) for set SENSOR and time  0.8593750E-02

      7572 -3.440532E-02 -7.265742E-01  1.863443E+01

 displacements (vx,vy,vz) for set SENSOR and time  0.8632813E-02

      7572 -8.105189E-02 -7.833241E-01  1.841072E+01

 displacements (vx,vy,vz) for set SENSOR and time  0.8671875E-02

      7572 -1.116885E-01 -8.568877E-01  1.816769E+01

 displacements (vx,vy,vz) for set SENSOR and time  0.8710938E-02

      7572 -1.368179E-01 -9.201104E-01  1.788071E+01

 displacements (vx,vy,vz) for set SENSOR and time  0.8750000E-02

      7572 -1.644011E-01 -9.522108E-01  1.758996E+01

 displacements (vx,vy,vz) for set SENSOR and time  0.8789063E-02

      7572 -1.940873E-01 -9.451182E-01  1.735445E+01

 displacements (vx,vy,vz) for set SENSOR and time  0.8828125E-02

      7572 -2.203254E-01 -9.028382E-01  1.719505E+01

 displacements (vx,vy,vz) for set SENSOR and time  0.8867188E-02

      7572 -2.326846E-01 -8.429911E-01  1.711048E+01

 displacements (vx,vy,vz) for set SENSOR and time  0.8906250E-02

      7572 -2.199805E-01 -7.877022E-01  1.711683E+01

 displacements (vx,vy,vz) for set SENSOR and time  0.8945313E-02

      7572 -1.797040E-01 -7.511358E-01  1.722156E+01

 displacements (vx,vy,vz) for set SENSOR and time  0.8984375E-02

      7572 -1.206550E-01 -7.410971E-01  1.740832E+01

 displacements (vx,vy,vz) for set SENSOR and time  0.9023438E-02

      7572 -5.665858E-02 -7.607145E-01  1.768019E+01

 displacements (vx,vy,vz) for set SENSOR and time  0.9062500E-02

      7572  5.925411E-04 -8.002352E-01  1.804820E+01

 displacements (vx,vy,vz) for set SENSOR and time  0.9101563E-02

      7572  4.579331E-02 -8.391768E-01  1.847390E+01

 displacements (vx,vy,vz) for set SENSOR and time  0.9140625E-02

      7572  8.061020E-02 -8.616904E-01  1.889488E+01

 displacements (vx,vy,vz) for set SENSOR and time  0.9179688E-02

      7572  1.094789E-01 -8.639586E-01  1.927883E+01

 displacements (vx,vy,vz) for set SENSOR and time  0.9218750E-02

      7572  1.327128E-01 -8.506316E-01  1.960143E+01

 displacements (vx,vy,vz) for set SENSOR and time  0.9257813E-02

      7572  1.443240E-01 -8.293678E-01  1.983162E+01

 displacements (vx,vy,vz) for set SENSOR and time  0.9296875E-02

      7572  1.400297E-01 -8.048549E-01  1.997787E+01

 displacements (vx,vy,vz) for set SENSOR and time  0.9335938E-02

      7572  1.257971E-01 -7.769144E-01  2.009485E+01

 displacements (vx,vy,vz) for set SENSOR and time  0.9375000E-02

      7572  1.117795E-01 -7.449734E-01  2.022765E+01

 displacements (vx,vy,vz) for set SENSOR and time  0.9414063E-02

      7572  9.953909E-02 -7.103924E-01  2.037388E+01

 displacements (vx,vy,vz) for set SENSOR and time  0.9453125E-02

      7572  8.343592E-02 -6.749914E-01  2.048457E+01

 displacements (vx,vy,vz) for set SENSOR and time  0.9492188E-02

      7572  6.231714E-02 -6.404589E-01  2.048888E+01

 displacements (vx,vy,vz) for set SENSOR and time  0.9531250E-02

      7572  4.187563E-02 -6.065472E-01  2.034423E+01

 displacements (vx,vy,vz) for set SENSOR and time  0.9570313E-02

      7572  2.780845E-02 -5.692451E-01  2.008279E+01

 displacements (vx,vy,vz) for set SENSOR and time  0.9609375E-02

      7572  2.274339E-02 -5.233867E-01  1.981174E+01

 displacements (vx,vy,vz) for set SENSOR and time  0.9648438E-02

      7572  2.810678E-02 -4.661017E-01  1.965213E+01

 displacements (vx,vy,vz) for set SENSOR and time  0.9687500E-02

      7572  4.428091E-02 -4.000138E-01  1.964463E+01

 displacements (vx,vy,vz) for set SENSOR and time  0.9726563E-02

      7572  6.840714E-02 -3.368800E-01  1.971780E+01

 displacements (vx,vy,vz) for set SENSOR and time  0.9765625E-02

      7572  9.527889E-02 -2.921656E-01  1.977770E+01