
 displacements (vx,vy,vz) for set SENSOR and time  0.3906250E-04

      7572 -7.209623E-03  3.331965E-03  2.949605E-02

 displacements (vx,vy,vz) for set SENSOR and time  0.7812500E-04

      7572 -2.371715E-02  1.385889E-02  9.683828E-02

 displacements (vx,vy,vz) for set SENSOR and time  0.1171875E-03

      7572  4.660507E-03  6.426299E-03 -9.303408E-03

 displacements (vx,vy,vz) for set SENSOR and time  0.1562500E-03

      7572  2.602303E-02 -1.298385E-02 -7.753206E-02

 displacements (vx,vy,vz) for set SENSOR and time  0.1953125E-03

      7572 -9.939694E-03 -1.401971E-02  2.817115E-02

 displacements (vx,vy,vz) for set SENSOR and time  0.2343750E-03

      7572 -3.194765E-02  1.068649E-02  3.463119E-02

 displacements (vx,vy,vz) for set SENSOR and time  0.2734375E-03

      7572  1.992702E-02  2.548424E-02 -8.240694E-02

 displacements (vx,vy,vz) for set SENSOR and time  0.3125000E-03

      7572  5.237877E-02 -3.575861E-04  4.579907E-02

 displacements (vx,vy,vz) for set SENSOR and time  0.3515625E-03

      7572 -2.975859E-02 -3.610205E-02  2.641003E-01

 displacements (vx,vy,vz) for set SENSOR and time  0.3906250E-03

      7572 -1.099765E-01 -2.284710E-02 -1.077581E-01

 displacements (vx,vy,vz) for set SENSOR and time  0.4296875E-03

      7572 -4.886978E-03  3.386563E-02 -7.932845E-01

 displacements (vx,vy,vz) for set SENSOR and time  0.4687500E-03

      7572  1.996257E-01  5.772311E-02 -4.002476E-01

 displacements (vx,vy,vz) for set SENSOR and time  0.5078125E-03

      7572  1.962071E-01  1.116113E-02  1.261918E+00

 displacements (vx,vy,vz) for set SENSOR and time  0.5468750E-03

      7572 -9.382988E-02 -4.420783E-02  2.101330E+00

 displacements (vx,vy,vz) for set SENSOR and time  0.5859375E-03

      7572 -3.471366E-01 -4.268035E-02  5.427841E-01

 displacements (vx,vy,vz) for set SENSOR and time  0.6250000E-03

      7572 -2.691226E-01 -1.948433E-02 -1.779366E+00

 displacements (vx,vy,vz) for set SENSOR and time  0.6640625E-03

      7572 -1.440951E-02 -4.822458E-02 -2.221973E+00

 displacements (vx,vy,vz) for set SENSOR and time  0.7031250E-03

      7572  5.516349E-02 -1.040912E-01 -1.236672E+00

 displacements (vx,vy,vz) for set SENSOR and time  0.7421875E-03

      7572 -7.088748E-02 -8.212014E-02 -1.621382E+00

 displacements (vx,vy,vz) for set SENSOR and time  0.7812500E-03

      7572 -2.636875E-02  4.587375E-02 -3.659376E+00

 displacements (vx,vy,vz) for set SENSOR and time  0.8203125E-03

      7572  3.688234E-01  1.857771E-01 -3.921487E+00

 displacements (vx,vy,vz) for set SENSOR and time  0.8593750E-03

      7572  7.898584E-01  2.581951E-01 -8.487997E-02

 displacements (vx,vy,vz) for set SENSOR and time  0.8984375E-03

      7572  7.994054E-01  2.855740E-01  5.441131E+00

 displacements (vx,vy,vz) for set SENSOR and time  0.9375000E-03

      7572  3.852379E-01  2.880742E-01  8.519431E+00

 displacements (vx,vy,vz) for set SENSOR and time  0.9765625E-03

      7572 -7.948976E-02  1.905846E-01  8.198874E+00

 displacements (vx,vy,vz) for set SENSOR and time  0.1015625E-02

      7572 -3.135771E-01 -5.769618E-02  6.577133E+00

 displacements (vx,vy,vz) for set SENSOR and time  0.1054688E-02

      7572 -3.619399E-01 -3.283388E-01  5.060526E+00

 displacements (vx,vy,vz) for set SENSOR and time  0.1093750E-02

      7572 -3.800305E-01 -4.180393E-01  3.255337E+00

 displacements (vx,vy,vz) for set SENSOR and time  0.1132813E-02

      7572 -3.944869E-01 -3.117300E-01  1.110134E+00

 displacements (vx,vy,vz) for set SENSOR and time  0.1171875E-02

      7572 -3.522121E-01 -2.101975E-01 -3.396196E-01

 displacements (vx,vy,vz) for set SENSOR and time  0.1210938E-02

      7572 -2.685416E-01 -2.478292E-01 -7.214745E-01

 displacements (vx,vy,vz) for set SENSOR and time  0.1250000E-02

      7572 -2.162212E-01 -3.011266E-01 -8.835385E-01

 displacements (vx,vy,vz) for set SENSOR and time  0.1289063E-02

      7572 -2.268440E-01 -1.747636E-01 -1.225310E+00

 displacements (vx,vy,vz) for set SENSOR and time  0.1328125E-02

      7572 -2.839053E-01  1.006937E-01 -1.235424E+00

 displacements (vx,vy,vz) for set SENSOR and time  0.1367188E-02

      7572 -3.721172E-01  2.873857E-01 -1.276664E+00

 displacements (vx,vy,vz) for set SENSOR and time  0.1406250E-02

      7572 -4.629448E-01  2.410005E-01 -2.922116E+00

 displacements (vx,vy,vz) for set SENSOR and time  0.1445313E-02

      7572 -4.844392E-01  7.013840E-02 -6.357413E+00

 displacements (vx,vy,vz) for set SENSOR and time  0.1484375E-02

      7572 -3.817832E-01 -3.871164E-02 -9.093223E+00

 displacements (vx,vy,vz) for set SENSOR and time  0.1523438E-02

      7572 -1.994837E-01 -5.483502E-02 -8.888565E+00

 displacements (vx,vy,vz) for set SENSOR and time  0.1562500E-02

      7572 -4.308761E-02 -8.442968E-02 -6.804975E+00

 displacements (vx,vy,vz) for set SENSOR and time  0.1601563E-02

      7572  3.538381E-02 -1.712385E-01 -5.556127E+00

 displacements (vx,vy,vz) for set SENSOR and time  0.1640625E-02

      7572  5.943313E-02 -2.153060E-01 -5.636896E+00

 displacements (vx,vy,vz) for set SENSOR and time  0.1679688E-02

      7572  4.849968E-02 -1.103517E-01 -5.189999E+00

 displacements (vx,vy,vz) for set SENSOR and time  0.1718750E-02

      7572 -6.540581E-03  9.665663E-02 -3.451680E+00

 displacements (vx,vy,vz) for set SENSOR and time  0.1757813E-02

      7572 -7.461349E-02  2.338445E-01 -2.024513E+00

 displacements (vx,vy,vz) for set SENSOR and time  0.1796875E-02

      7572 -7.402084E-02  1.905688E-01 -2.146487E+00

 displacements (vx,vy,vz) for set SENSOR and time  0.1835937E-02

      7572  1.510632E-02  4.274486E-02 -2.704500E+00

 displacements (vx,vy,vz) for set SENSOR and time  0.1875000E-02

      7572  8.358578E-02 -3.497756E-02 -2.199365E+00

 displacements (vx,vy,vz) for set SENSOR and time  0.1914062E-02

      7572  1.097374E-02  2.321614E-02 -1.257714E+00

 displacements (vx,vy,vz) for set SENSOR and time  0.1953125E-02

      7572 -1.726046E-01  9.624444E-02 -1.624536E+00

 displacements (vx,vy,vz) for set SENSOR and time  0.1992187E-02

      7572 -3.147045E-01  3.845255E-02 -3.461890E+00

 displacements (vx,vy,vz) for set SENSOR and time  0.2031250E-02

      7572 -3.295922E-01 -1.120832E-01 -5.277355E+00

 displacements (vx,vy,vz) for set SENSOR and time  0.2070312E-02

      7572 -2.860769E-01 -1.599202E-01 -6.273467E+00

 displacements (vx,vy,vz) for set SENSOR and time  0.2109375E-02

      7572 -2.810993E-01 -1.665093E-03 -7.211840E+00

 displacements (vx,vy,vz) for set SENSOR and time  0.2148437E-02

      7572 -2.935609E-01  2.238284E-01 -8.717570E+00

 displacements (vx,vy,vz) for set SENSOR and time  0.2187500E-02

      7572 -2.263240E-01  2.936186E-01 -1.008626E+01

 displacements (vx,vy,vz) for set SENSOR and time  0.2226562E-02

      7572 -5.980272E-02  1.654455E-01 -1.046905E+01

 displacements (vx,vy,vz) for set SENSOR and time  0.2265625E-02

      7572  1.118510E-01  5.563522E-03 -1.032592E+01

 displacements (vx,vy,vz) for set SENSOR and time  0.2304687E-02

      7572  2.008173E-01 -3.632524E-02 -1.080841E+01

 displacements (vx,vy,vz) for set SENSOR and time  0.2343750E-02

      7572  2.129576E-01  8.723741E-03 -1.214639E+01

 displacements (vx,vy,vz) for set SENSOR and time  0.2382812E-02

      7572  1.878530E-01  1.945170E-02 -1.349159E+01

 displacements (vx,vy,vz) for set SENSOR and time  0.2421875E-02

      7572  1.185592E-01 -3.671902E-02 -1.421786E+01

 displacements (vx,vy,vz) for set SENSOR and time  0.2460937E-02

      7572  4.050679E-04 -8.362859E-02 -1.458228E+01

 displacements (vx,vy,vz) for set SENSOR and time  0.2500000E-02

      7572 -7.332881E-02 -6.072510E-02 -1.492366E+01

 displacements (vx,vy,vz) for set SENSOR and time  0.2539062E-02

      7572  3.933874E-02  6.989559E-03 -1.485326E+01

 displacements (vx,vy,vz) for set SENSOR and time  0.2578125E-02

      7572  3.542891E-01  6.612807E-02 -1.374607E+01

 displacements (vx,vy,vz) for set SENSOR and time  0.2617187E-02

      7572  7.013152E-01  1.023635E-01 -1.178668E+01

 displacements (vx,vy,vz) for set SENSOR and time  0.2656250E-02

      7572  8.896465E-01  1.273453E-01 -9.975564E+00

 displacements (vx,vy,vz) for set SENSOR and time  0.2695312E-02

      7572  8.928244E-01  1.404608E-01 -8.972289E+00

 displacements (vx,vy,vz) for set SENSOR and time  0.2734375E-02

      7572  8.136676E-01  1.400105E-01 -8.313484E+00

 displacements (vx,vy,vz) for set SENSOR and time  0.2773437E-02

      7572  7.042308E-01  1.515320E-01 -7.097698E+00

 displacements (vx,vy,vz) for set SENSOR and time  0.2812500E-02

      7572  5.153428E-01  2.046297E-01 -5.234862E+00

 displacements (vx,vy,vz) for set SENSOR and time  0.2851562E-02

      7572  2.394204E-01  2.784220E-01 -3.528030E+00

 displacements (vx,vy,vz) for set SENSOR and time  0.2890625E-02

      7572  1.029020E-02  2.994368E-01 -2.446560E+00

 displacements (vx,vy,vz) for set SENSOR and time  0.2929687E-02

      7572 -1.432642E-02  2.131424E-01 -1.343186E+00

 displacements (vx,vy,vz) for set SENSOR and time  0.2968750E-02

      7572  1.622553E-01  5.136040E-02  6.899588E-01

 displacements (vx,vy,vz) for set SENSOR and time  0.3007812E-02

      7572  3.757641E-01 -8.371433E-02  3.472632E+00

 displacements (vx,vy,vz) for set SENSOR and time  0.3046875E-02

      7572  4.820971E-01 -1.048071E-01  5.784393E+00

 displacements (vx,vy,vz) for set SENSOR and time  0.3085937E-02

      7572  4.840482E-01 -7.489720E-03  6.722803E+00

 displacements (vx,vy,vz) for set SENSOR and time  0.3125000E-02

      7572  4.703787E-01  1.398370E-01  6.525084E+00

 displacements (vx,vy,vz) for set SENSOR and time  0.3164062E-02

      7572  4.842001E-01  2.600128E-01  5.983255E+00

 displacements (vx,vy,vz) for set SENSOR and time  0.3203125E-02

      7572  4.896402E-01  3.167154E-01  5.579801E+00

 displacements (vx,vy,vz) for set SENSOR and time  0.3242187E-02

      7572  4.440295E-01  3.154428E-01  5.453682E+00

 displacements (vx,vy,vz) for set SENSOR and time  0.3281250E-02

      7572  3.609858E-01  2.777674E-01  5.730732E+00

 displacements (vx,vy,vz) for set SENSOR and time  0.3320312E-02

      7572  2.949583E-01  2.206756E-01  6.399796E+00

 displacements (vx,vy,vz) for set SENSOR and time  0.3359375E-02

      7572  2.816885E-01  1.485256E-01  7.081370E+00

 displacements (vx,vy,vz) for set SENSOR and time  0.3398437E-02

      7572  3.049006E-01  5.795146E-02  7.371205E+00

 displacements (vx,vy,vz) for set SENSOR and time  0.3437500E-02

      7572  3.199598E-01 -4.048356E-02  7.347827E+00

 displacements (vx,vy,vz) for set SENSOR and time  0.3476562E-02

      7572  3.039204E-01 -1.049056E-01  7.422858E+00

 displacements (vx,vy,vz) for set SENSOR and time  0.3515625E-02

      7572  2.726977E-01 -9.011973E-02  7.808593E+00

 displacements (vx,vy,vz) for set SENSOR and time  0.3554687E-02

      7572  2.465706E-01 -9.565123E-03  8.474849E+00

 displacements (vx,vy,vz) for set SENSOR and time  0.3593750E-02

      7572  2.180005E-01  5.461688E-02  9.472269E+00

 displacements (vx,vy,vz) for set SENSOR and time  0.3632812E-02

      7572  1.759626E-01  3.775297E-02  1.080772E+01

 displacements (vx,vy,vz) for set SENSOR and time  0.3671875E-02

      7572  1.489469E-01 -2.204198E-02  1.203623E+01

 displacements (vx,vy,vz) for set SENSOR and time  0.3710937E-02

      7572  1.833521E-01 -2.641897E-02  1.253953E+01

 displacements (vx,vy,vz) for set SENSOR and time  0.3750000E-02

      7572  2.700814E-01  5.417777E-02  1.235394E+01

 displacements (vx,vy,vz) for set SENSOR and time  0.3789062E-02

      7572  3.327662E-01  1.421502E-01  1.220256E+01

 displacements (vx,vy,vz) for set SENSOR and time  0.3828125E-02

      7572  3.172532E-01  1.606165E-01  1.245532E+01

 displacements (vx,vy,vz) for set SENSOR and time  0.3867187E-02

      7572  2.636301E-01  1.276452E-01  1.256684E+01

 displacements (vx,vy,vz) for set SENSOR and time  0.3906250E-02

      7572  2.509201E-01  1.015836E-01  1.195489E+01

 displacements (vx,vy,vz) for set SENSOR and time  0.3945312E-02

      7572  2.885526E-01  7.768135E-02  1.098866E+01

 displacements (vx,vy,vz) for set SENSOR and time  0.3984375E-02

      7572  3.108031E-01  9.842732E-03  1.050207E+01

 displacements (vx,vy,vz) for set SENSOR and time  0.4023437E-02

      7572  2.784262E-01 -8.007451E-02  1.057948E+01

 displacements (vx,vy,vz) for set SENSOR and time  0.4062500E-02

      7572  2.350889E-01 -9.772052E-02  1.052965E+01

 displacements (vx,vy,vz) for set SENSOR and time  0.4101562E-02

      7572  2.392417E-01 -6.048558E-03  1.004654E+01

 displacements (vx,vy,vz) for set SENSOR and time  0.4140625E-02

      7572  2.748826E-01  1.057694E-01  9.665598E+00

 displacements (vx,vy,vz) for set SENSOR and time  0.4179687E-02

      7572  2.659989E-01  1.286545E-01  9.800872E+00

 displacements (vx,vy,vz) for set SENSOR and time  0.4218750E-02

      7572  1.698197E-01  6.311516E-02  9.939454E+00

 displacements (vx,vy,vz) for set SENSOR and time  0.4257812E-02

      7572  3.088337E-02 -1.154437E-02  9.308570E+00

 displacements (vx,vy,vz) for set SENSOR and time  0.4296875E-02

      7572 -5.530094E-02 -6.316212E-02  8.026447E+00

 displacements (vx,vy,vz) for set SENSOR and time  0.4335937E-02

      7572 -1.934887E-02 -1.297877E-01  7.042922E+00

 displacements (vx,vy,vz) for set SENSOR and time  0.4375000E-02

      7572  1.318173E-01 -2.215161E-01  7.000518E+00

 displacements (vx,vy,vz) for set SENSOR and time  0.4414062E-02

      7572  3.225134E-01 -2.739268E-01  7.587010E+00

 displacements (vx,vy,vz) for set SENSOR and time  0.4453125E-02

      7572  4.658928E-01 -2.319686E-01  8.049211E+00

 displacements (vx,vy,vz) for set SENSOR and time  0.4492187E-02

      7572  5.254618E-01 -1.328688E-01  7.975486E+00

 displacements (vx,vy,vz) for set SENSOR and time  0.4531250E-02

      7572  5.218686E-01 -6.293916E-02  7.447089E+00

 displacements (vx,vy,vz) for set SENSOR and time  0.4570312E-02

      7572  4.839686E-01 -5.539396E-02  6.731320E+00

 displacements (vx,vy,vz) for set SENSOR and time  0.4609375E-02

      7572  4.153206E-01 -6.912292E-02  6.078199E+00

 displacements (vx,vy,vz) for set SENSOR and time  0.4648437E-02

      7572  3.202231E-01 -5.647358E-02  5.687146E+00

 displacements (vx,vy,vz) for set SENSOR and time  0.4687500E-02

      7572  2.346287E-01 -1.506936E-02  5.634197E+00

 displacements (vx,vy,vz) for set SENSOR and time  0.4726562E-02

      7572  1.967711E-01  2.842128E-02  5.810878E+00

 displacements (vx,vy,vz) for set SENSOR and time  0.4765625E-02

      7572  1.978696E-01  5.633347E-02  6.043936E+00

 displacements (vx,vy,vz) for set SENSOR and time  0.4804687E-02

      7572  1.984441E-01  7.183126E-02  6.297175E+00

 displacements (vx,vy,vz) for set SENSOR and time  0.4843750E-02

      7572  1.909657E-01  8.902146E-02  6.709644E+00

 displacements (vx,vy,vz) for set SENSOR and time  0.4882812E-02

      7572  2.049021E-01  1.191737E-01  7.442220E+00

 displacements (vx,vy,vz) for set SENSOR and time  0.4921875E-02

      7572  2.405144E-01  1.590406E-01  8.524000E+00

 displacements (vx,vy,vz) for set SENSOR and time  0.4960937E-02

      7572  2.438925E-01  1.928073E-01  9.840506E+00

 displacements (vx,vy,vz) for set SENSOR and time  0.5000000E-02

      7572  1.792817E-01  2.130651E-01  1.124421E+01

 displacements (vx,vy,vz) for set SENSOR and time  0.5039062E-02

      7572  9.249154E-02  2.321424E-01  1.267603E+01

 displacements (vx,vy,vz) for set SENSOR and time  0.5078125E-02

      7572  5.716266E-02  2.569070E-01  1.417028E+01

 displacements (vx,vy,vz) for set SENSOR and time  0.5117187E-02

      7572  7.257934E-02  2.605499E-01  1.570249E+01

 displacements (vx,vy,vz) for set SENSOR and time  0.5156250E-02

      7572  6.326309E-02  2.068203E-01  1.703365E+01

 displacements (vx,vy,vz) for set SENSOR and time  0.5195312E-02

      7572 -1.543920E-02  1.061771E-01  1.778132E+01

 displacements (vx,vy,vz) for set SENSOR and time  0.5234375E-02

      7572 -1.139256E-01  1.982349E-02  1.771350E+01

 displacements (vx,vy,vz) for set SENSOR and time  0.5273437E-02

      7572 -1.489726E-01 -6.788390E-03  1.695755E+01

 displacements (vx,vy,vz) for set SENSOR and time  0.5312500E-02

      7572 -9.727925E-02  7.728339E-03  1.587418E+01

 displacements (vx,vy,vz) for set SENSOR and time  0.5351562E-02

      7572 -4.365593E-03  1.754604E-02  1.473718E+01

 displacements (vx,vy,vz) for set SENSOR and time  0.5390625E-02

      7572  7.816259E-02  1.424832E-02  1.358547E+01

 displacements (vx,vy,vz) for set SENSOR and time  0.5429687E-02

      7572  1.336451E-01  2.640267E-02  1.238893E+01

 displacements (vx,vy,vz) for set SENSOR and time  0.5468750E-02

      7572  1.662110E-01  6.592196E-02  1.128351E+01

 displacements (vx,vy,vz) for set SENSOR and time  0.5507812E-02

      7572  1.754510E-01  1.093098E-01  1.054966E+01

 displacements (vx,vy,vz) for set SENSOR and time  0.5546875E-02

      7572  1.546315E-01  1.366746E-01  1.032389E+01

 displacements (vx,vy,vz) for set SENSOR and time  0.5585937E-02

      7572  1.020006E-01  1.602796E-01  1.038173E+01

 displacements (vx,vy,vz) for set SENSOR and time  0.5625000E-02

      7572  2.862635E-02  2.001078E-01  1.029021E+01

 displacements (vx,vy,vz) for set SENSOR and time  0.5664062E-02

      7572 -3.991087E-02  2.504301E-01  9.794650E+00

 displacements (vx,vy,vz) for set SENSOR and time  0.5703125E-02

      7572 -7.373011E-02  2.865450E-01  8.989904E+00

 displacements (vx,vy,vz) for set SENSOR and time  0.5742187E-02

      7572 -6.295409E-02  2.917155E-01  8.080796E+00

 displacements (vx,vy,vz) for set SENSOR and time  0.5781250E-02

      7572 -3.184712E-02  2.628011E-01  7.075634E+00

 displacements (vx,vy,vz) for set SENSOR and time  0.5820312E-02

      7572 -1.631662E-02  2.016726E-01  5.832057E+00

 displacements (vx,vy,vz) for set SENSOR and time  0.5859375E-02

      7572 -2.498439E-02  1.209441E-01  4.350549E+00

 displacements (vx,vy,vz) for set SENSOR and time  0.5898437E-02

      7572 -3.432477E-02  5.276813E-02  2.855599E+00

 displacements (vx,vy,vz) for set SENSOR and time  0.5937500E-02

      7572 -2.512633E-02  3.042923E-02  1.554251E+00

 displacements (vx,vy,vz) for set SENSOR and time  0.5976562E-02

      7572 -8.224531E-03  5.610492E-02  4.554384E-01

 displacements (vx,vy,vz) for set SENSOR and time  0.6015625E-02

      7572 -3.599608E-03  9.892189E-02 -5.076756E-01

 displacements (vx,vy,vz) for set SENSOR and time  0.6054687E-02

      7572 -6.503022E-03  1.271440E-01 -1.315039E+00

 displacements (vx,vy,vz) for set SENSOR and time  0.6093750E-02

      7572  8.383772E-03  1.300903E-01 -1.935577E+00

 displacements (vx,vy,vz) for set SENSOR and time  0.6132812E-02

      7572  5.325460E-02  1.067212E-01 -2.460683E+00

 displacements (vx,vy,vz) for set SENSOR and time  0.6171875E-02

      7572  1.156522E-01  5.120254E-02 -3.010119E+00

 displacements (vx,vy,vz) for set SENSOR and time  0.6210937E-02

      7572  1.832524E-01 -3.527844E-02 -3.557389E+00

 displacements (vx,vy,vz) for set SENSOR and time  0.6250000E-02

      7572  2.617462E-01 -1.258895E-01 -4.001513E+00

 displacements (vx,vy,vz) for set SENSOR and time  0.6289062E-02

      7572  3.541389E-01 -1.771679E-01 -4.387882E+00

 displacements (vx,vy,vz) for set SENSOR and time  0.6328125E-02

      7572  4.320925E-01 -1.603298E-01 -4.890102E+00

 displacements (vx,vy,vz) for set SENSOR and time  0.6367187E-02

      7572  4.484345E-01 -7.965106E-02 -5.545735E+00

 displacements (vx,vy,vz) for set SENSOR and time  0.6406250E-02

      7572  3.846431E-01  3.657197E-02 -6.159874E+00

 displacements (vx,vy,vz) for set SENSOR and time  0.6445312E-02

      7572  2.753082E-01  1.544688E-01 -6.531015E+00

 displacements (vx,vy,vz) for set SENSOR and time  0.6484375E-02

      7572  1.770312E-01  2.451556E-01 -6.652169E+00

 displacements (vx,vy,vz) for set SENSOR and time  0.6523437E-02

      7572  1.190854E-01  2.899103E-01 -6.626065E+00

 displacements (vx,vy,vz) for set SENSOR and time  0.6562500E-02

      7572  9.387841E-02  2.862546E-01 -6.509004E+00

 displacements (vx,vy,vz) for set SENSOR and time  0.6601562E-02

      7572  9.057897E-02  2.504500E-01 -6.343203E+00

 displacements (vx,vy,vz) for set SENSOR and time  0.6640625E-02

      7572  1.204017E-01  2.097102E-01 -6.247655E+00

 displacements (vx,vy,vz) for set SENSOR and time  0.6679687E-02

      7572  1.992962E-01  1.868709E-01 -6.345628E+00

 displacements (vx,vy,vz) for set SENSOR and time  0.6718750E-02

      7572  3.147051E-01  1.874676E-01 -6.631708E+00

 displacements (vx,vy,vz) for set SENSOR and time  0.6757812E-02

      7572  4.225884E-01  1.985257E-01 -6.981638E+00

 displacements (vx,vy,vz) for set SENSOR and time  0.6796875E-02

      7572  4.779615E-01  2.016124E-01 -7.222155E+00

 displacements (vx,vy,vz) for set SENSOR and time  0.6835937E-02

      7572  4.624889E-01  1.904251E-01 -7.101724E+00

 displacements (vx,vy,vz) for set SENSOR and time  0.6875000E-02

      7572  3.867328E-01  1.748042E-01 -6.307931E+00

 displacements (vx,vy,vz) for set SENSOR and time  0.6914062E-02

      7572  2.792823E-01  1.649131E-01 -4.726289E+00

 displacements (vx,vy,vz) for set SENSOR and time  0.6953125E-02

      7572  1.772198E-01  1.545440E-01 -2.693521E+00

 displacements (vx,vy,vz) for set SENSOR and time  0.6992187E-02

      7572  1.133238E-01  1.266790E-01 -8.103813E-01

 displacements (vx,vy,vz) for set SENSOR and time  0.7031250E-02

      7572  9.885718E-02  7.519131E-02  5.868341E-01

 displacements (vx,vy,vz) for set SENSOR and time  0.7070312E-02

      7572  1.199227E-01  1.284410E-02  1.681757E+00

 displacements (vx,vy,vz) for set SENSOR and time  0.7109375E-02

      7572  1.562549E-01 -4.524402E-02  2.869306E+00

 displacements (vx,vy,vz) for set SENSOR and time  0.7148437E-02

      7572  1.987770E-01 -9.759219E-02  4.301883E+00

 displacements (vx,vy,vz) for set SENSOR and time  0.7187500E-02

      7572  2.414591E-01 -1.483335E-01  5.797893E+00

 displacements (vx,vy,vz) for set SENSOR and time  0.7226562E-02

      7572  2.640229E-01 -1.890464E-01  7.082024E+00

 displacements (vx,vy,vz) for set SENSOR and time  0.7265625E-02

      7572  2.414804E-01 -1.999287E-01  8.009998E+00

 displacements (vx,vy,vz) for set SENSOR and time  0.7304687E-02

      7572  1.770651E-01 -1.700532E-01  8.628501E+00

 displacements (vx,vy,vz) for set SENSOR and time  0.7343750E-02

      7572  1.130874E-01 -1.082480E-01  9.126838E+00

 displacements (vx,vy,vz) for set SENSOR and time  0.7382812E-02

      7572  9.680712E-02 -3.189195E-02  9.696960E+00

 displacements (vx,vy,vz) for set SENSOR and time  0.7421875E-02

      7572  1.373663E-01  4.707250E-02  1.034387E+01

 displacements (vx,vy,vz) for set SENSOR and time  0.7460938E-02

      7572  2.020369E-01  1.211875E-01  1.084558E+01

 displacements (vx,vy,vz) for set SENSOR and time  0.7500000E-02

      7572  2.509391E-01  1.813715E-01  1.097214E+01

 displacements (vx,vy,vz) for set SENSOR and time  0.7539063E-02

      7572  2.684615E-01  2.211543E-01  1.072770E+01

 displacements (vx,vy,vz) for set SENSOR and time  0.7578125E-02

      7572  2.644432E-01  2.438796E-01  1.031755E+01

 displacements (vx,vy,vz) for set SENSOR and time  0.7617188E-02

      7572  2.562163E-01  2.567653E-01  9.917574E+00

 displacements (vx,vy,vz) for set SENSOR and time  0.7656250E-02

      7572  2.541020E-01  2.584229E-01  9.560952E+00

 displacements (vx,vy,vz) for set SENSOR and time  0.7695313E-02

      7572  2.585182E-01  2.416445E-01  9.210849E+00

 displacements (vx,vy,vz) for set SENSOR and time  0.7734375E-02

      7572  2.649515E-01  2.112354E-01  8.819039E+00

 displacements (vx,vy,vz) for set SENSOR and time  0.7773438E-02

      7572  2.707883E-01  1.898299E-01  8.305718E+00

 displacements (vx,vy,vz) for set SENSOR and time  0.7812500E-02

      7572  2.772612E-01  1.981131E-01  7.598470E+00

 displacements (vx,vy,vz) for set SENSOR and time  0.7851563E-02

      7572  2.838882E-01  2.334330E-01  6.723992E+00

 displacements (vx,vy,vz) for set SENSOR and time  0.7890625E-02

      7572  2.840883E-01  2.760698E-01  5.759610E+00

 displacements (vx,vy,vz) for set SENSOR and time  0.7929688E-02

      7572  2.723995E-01  3.149877E-01  4.656638E+00

 displacements (vx,vy,vz) for set SENSOR and time  0.7968750E-02

      7572  2.562286E-01  3.579845E-01  3.226911E+00

 displacements (vx,vy,vz) for set SENSOR and time  0.8007813E-02

      7572  2.527378E-01  4.134280E-01  1.386545E+00

 displacements (vx,vy,vz) for set SENSOR and time  0.8046875E-02

      7572  2.692759E-01  4.702796E-01 -6.684904E-01

 displacements (vx,vy,vz) for set SENSOR and time  0.8085938E-02

      7572  2.921945E-01  5.048914E-01 -2.620415E+00

 displacements (vx,vy,vz) for set SENSOR and time  0.8125000E-02

      7572  3.016512E-01  5.066344E-01 -4.305973E+00

 displacements (vx,vy,vz) for set SENSOR and time  0.8164063E-02

      7572  2.943304E-01  4.903226E-01 -5.751107E+00

 displacements (vx,vy,vz) for set SENSOR and time  0.8203125E-02

      7572  2.837986E-01  4.811834E-01 -6.993669E+00

 displacements (vx,vy,vz) for set SENSOR and time  0.8242188E-02

      7572  2.799405E-01  4.909880E-01 -7.995260E+00

 displacements (vx,vy,vz) for set SENSOR and time  0.8281250E-02

      7572  2.787506E-01  5.108032E-01 -8.718688E+00

 displacements (vx,vy,vz) for set SENSOR and time  0.8320313E-02

      7572  2.767945E-01  5.236845E-01 -9.185694E+00

 displacements (vx,vy,vz) for set SENSOR and time  0.8359375E-02

      7572  2.858939E-01  5.199748E-01 -9.444238E+00

 displacements (vx,vy,vz) for set SENSOR and time  0.8398438E-02

      7572  3.217276E-01  5.001757E-01 -9.562404E+00

 displacements (vx,vy,vz) for set SENSOR and time  0.8437500E-02

      7572  3.793804E-01  4.672023E-01 -9.665438E+00

 displacements (vx,vy,vz) for set SENSOR and time  0.8476563E-02

      7572  4.315764E-01  4.202682E-01 -9.891487E+00

 displacements (vx,vy,vz) for set SENSOR and time  0.8515625E-02

      7572  4.560937E-01  3.577133E-01 -1.028117E+01

 displacements (vx,vy,vz) for set SENSOR and time  0.8554688E-02

      7572  4.576176E-01  2.841261E-01 -1.077701E+01

 displacements (vx,vy,vz) for set SENSOR and time  0.8593750E-02

      7572  4.550553E-01  2.120130E-01 -1.134365E+01

 displacements (vx,vy,vz) for set SENSOR and time  0.8632813E-02

      7572  4.518054E-01  1.551202E-01 -1.199750E+01

 displacements (vx,vy,vz) for set SENSOR and time  0.8671875E-02

      7572  4.297164E-01  1.206056E-01 -1.268160E+01

 displacements (vx,vy,vz) for set SENSOR and time  0.8710938E-02

      7572  3.750150E-01  1.080196E-01 -1.321306E+01

 displacements (vx,vy,vz) for set SENSOR and time  0.8750000E-02

      7572  3.009760E-01  1.138810E-01 -1.344093E+01

 displacements (vx,vy,vz) for set SENSOR and time  0.8789063E-02

      7572  2.371596E-01  1.343680E-01 -1.340641E+01

 displacements (vx,vy,vz) for set SENSOR and time  0.8828125E-02

      7572  2.004953E-01  1.637650E-01 -1.328331E+01

 displacements (vx,vy,vz) for set SENSOR and time  0.8867188E-02

      7572  1.857612E-01  1.941317E-01 -1.321885E+01

 displacements (vx,vy,vz) for set SENSOR and time  0.8906250E-02

      7572  1.831274E-01  2.193508E-01 -1.330730E+01

 displacements (vx,vy,vz) for set SENSOR and time  0.8945313E-02

      7572  1.933079E-01  2.379585E-01 -1.364209E+01

 displacements (vx,vy,vz) for set SENSOR and time  0.8984375E-02

      7572  2.189256E-01  2.492901E-01 -1.424495E+01

 displacements (vx,vy,vz) for set SENSOR and time  0.9023438E-02

      7572  2.488434E-01  2.483379E-01 -1.493555E+01

 displacements (vx,vy,vz) for set SENSOR and time  0.9062500E-02

      7572  2.629395E-01  2.293674E-01 -1.539727E+01

 displacements (vx,vy,vz) for set SENSOR and time  0.9101563E-02

      7572  2.536155E-01  1.967803E-01 -1.542988E+01

 displacements (vx,vy,vz) for set SENSOR and time  0.9140625E-02

      7572  2.347334E-01  1.689080E-01 -1.507760E+01

 displacements (vx,vy,vz) for set SENSOR and time  0.9179688E-02

      7572  2.257667E-01  1.661744E-01 -1.449664E+01

 displacements (vx,vy,vz) for set SENSOR and time  0.9218750E-02

      7572  2.322579E-01  1.941392E-01 -1.380212E+01

 displacements (vx,vy,vz) for set SENSOR and time  0.9257813E-02

      7572  2.457757E-01  2.395361E-01 -1.310736E+01

 displacements (vx,vy,vz) for set SENSOR and time  0.9296875E-02

      7572  2.582596E-01  2.831853E-01 -1.261396E+01

 displacements (vx,vy,vz) for set SENSOR and time  0.9335938E-02

      7572  2.694508E-01  3.153986E-01 -1.252565E+01

 displacements (vx,vy,vz) for set SENSOR and time  0.9375000E-02

      7572  2.813148E-01  3.387656E-01 -1.286108E+01

 displacements (vx,vy,vz) for set SENSOR and time  0.9414063E-02

      7572  2.927849E-01  3.585728E-01 -1.341910E+01

 displacements (vx,vy,vz) for set SENSOR and time  0.9453125E-02

      7572  3.039028E-01  3.735196E-01 -1.393762E+01

 displacements (vx,vy,vz) for set SENSOR and time  0.9492188E-02

      7572  3.212288E-01  3.767183E-01 -1.424524E+01

 displacements (vx,vy,vz) for set SENSOR and time  0.9531250E-02

      7572  3.537241E-01  3.648820E-01 -1.427580E+01

 displacements (vx,vy,vz) for set SENSOR and time  0.9570313E-02

      7572  4.026188E-01  3.453094E-01 -1.402125E+01

 displacements (vx,vy,vz) for set SENSOR and time  0.9609375E-02

      7572  4.579968E-01  3.329046E-01 -1.351984E+01

 displacements (vx,vy,vz) for set SENSOR and time  0.9648438E-02

      7572  5.066033E-01  3.396653E-01 -1.286281E+01

 displacements (vx,vy,vz) for set SENSOR and time  0.9687500E-02

      7572  5.420544E-01  3.667724E-01 -1.217242E+01

 displacements (vx,vy,vz) for set SENSOR and time  0.9726563E-02

      7572  5.670718E-01  4.064832E-01 -1.156427E+01

 displacements (vx,vy,vz) for set SENSOR and time  0.9765625E-02

      7572  5.873937E-01  4.502249E-01 -1.112121E+01