
 displacements (vx,vy,vz) for set SENSOR and time  0.3906250E-04

      7572 -2.748485E-02 -2.091935E-02 -9.417756E-02

 displacements (vx,vy,vz) for set SENSOR and time  0.7812500E-04

      7572 -6.406769E-02 -4.935874E-02 -3.186668E-01

 displacements (vx,vy,vz) for set SENSOR and time  0.1171875E-03

      7572  8.567545E-02  7.089639E-02  1.100598E-01

 displacements (vx,vy,vz) for set SENSOR and time  0.1562500E-03

      7572  7.709290E-02  7.185698E-02  7.796399E-01

 displacements (vx,vy,vz) for set SENSOR and time  0.1953125E-03

      7572 -2.074823E-01 -1.891317E-01  5.691975E-01

 displacements (vx,vy,vz) for set SENSOR and time  0.2343750E-03

      7572 -3.515520E-01 -3.661953E-01 -1.228117E+00

 displacements (vx,vy,vz) for set SENSOR and time  0.2734375E-03

      7572 -1.985419E-01 -2.187233E-01 -3.658059E+00

 displacements (vx,vy,vz) for set SENSOR and time  0.3125000E-03

      7572  3.655469E-02  7.673067E-02 -4.360293E+00

 displacements (vx,vy,vz) for set SENSOR and time  0.3515625E-03

      7572  2.238244E-01  2.791127E-01 -2.933949E+00

 displacements (vx,vy,vz) for set SENSOR and time  0.3906250E-03

      7572  3.302721E-01  2.892527E-01 -1.632217E+00

 displacements (vx,vy,vz) for set SENSOR and time  0.4296875E-03

      7572  3.512069E-01  1.637106E-01 -1.330693E+00

 displacements (vx,vy,vz) for set SENSOR and time  0.4687500E-03

      7572  3.534816E-01  1.615537E-01 -8.737635E-01

 displacements (vx,vy,vz) for set SENSOR and time  0.5078125E-03

      7572  3.748329E-01  4.320734E-01 -9.225326E-02

 displacements (vx,vy,vz) for set SENSOR and time  0.5468750E-03

      7572  4.163673E-01  6.783681E-01  8.415533E-01

 displacements (vx,vy,vz) for set SENSOR and time  0.5859375E-03

      7572  4.752871E-01  6.296798E-01  2.719247E+00

 displacements (vx,vy,vz) for set SENSOR and time  0.6250000E-03

      7572  4.887035E-01  5.426110E-01  5.194530E+00

 displacements (vx,vy,vz) for set SENSOR and time  0.6640625E-03

      7572  4.627502E-01  6.464804E-01  6.992207E+00

 displacements (vx,vy,vz) for set SENSOR and time  0.7031250E-03

      7572  4.791233E-01  6.794056E-01  8.282104E+00

 displacements (vx,vy,vz) for set SENSOR and time  0.7421875E-03

      7572  4.487861E-01  5.197907E-01  9.341906E+00

 displacements (vx,vy,vz) for set SENSOR and time  0.7812500E-03

      7572  3.283633E-01  4.421648E-01  9.440776E+00

 displacements (vx,vy,vz) for set SENSOR and time  0.8203125E-03

      7572  3.592726E-01  4.162080E-01  9.215478E+00

 displacements (vx,vy,vz) for set SENSOR and time  0.8593750E-03

      7572  5.262533E-01  1.556282E-01  1.017951E+01

 displacements (vx,vy,vz) for set SENSOR and time  0.8984375E-03

      7572  4.497309E-01 -1.337928E-01  1.175916E+01

 displacements (vx,vy,vz) for set SENSOR and time  0.9375000E-03

      7572  2.002500E-01 -7.194867E-02  1.253018E+01

 displacements (vx,vy,vz) for set SENSOR and time  0.9765625E-03

      7572  2.131984E-01  1.499292E-01  1.255989E+01

 displacements (vx,vy,vz) for set SENSOR and time  0.1015625E-02

      7572  3.879813E-01  1.757796E-01  1.224646E+01

 displacements (vx,vy,vz) for set SENSOR and time  0.1054688E-02

      7572  3.418160E-01  1.006903E-01  1.161500E+01

 displacements (vx,vy,vz) for set SENSOR and time  0.1093750E-02

      7572  1.821023E-01  1.228196E-01  1.113575E+01

 displacements (vx,vy,vz) for set SENSOR and time  0.1132813E-02

      7572  1.806969E-01  1.411498E-01  1.090594E+01

 displacements (vx,vy,vz) for set SENSOR and time  0.1171875E-02

      7572  2.622793E-01  2.103583E-02  1.040555E+01

 displacements (vx,vy,vz) for set SENSOR and time  0.1210938E-02

      7572  2.749088E-01 -1.231321E-01  9.950209E+00

 displacements (vx,vy,vz) for set SENSOR and time  0.1250000E-02

      7572  2.313997E-01 -9.423226E-02  1.000161E+01

 displacements (vx,vy,vz) for set SENSOR and time  0.1289063E-02

      7572  1.894238E-01  7.427921E-02  9.903603E+00

 displacements (vx,vy,vz) for set SENSOR and time  0.1328125E-02

      7572  1.938672E-01  1.355769E-01  9.476333E+00

 displacements (vx,vy,vz) for set SENSOR and time  0.1367188E-02

      7572  2.162648E-01 -3.626531E-03  9.402386E+00

 displacements (vx,vy,vz) for set SENSOR and time  0.1406250E-02

      7572  1.433968E-01 -1.519300E-01  9.112502E+00

 displacements (vx,vy,vz) for set SENSOR and time  0.1445313E-02

      7572  3.595199E-03 -1.410804E-01  7.760144E+00

 displacements (vx,vy,vz) for set SENSOR and time  0.1484375E-02

      7572 -4.259857E-03 -1.931546E-02  6.509713E+00

 displacements (vx,vy,vz) for set SENSOR and time  0.1523438E-02

      7572  1.502500E-01  6.343208E-02  6.414714E+00

 displacements (vx,vy,vz) for set SENSOR and time  0.1562500E-02

      7572  2.621669E-01 -1.249065E-02  6.432806E+00

 displacements (vx,vy,vz) for set SENSOR and time  0.1601563E-02

      7572  2.585138E-01 -2.242431E-01  5.898835E+00

 displacements (vx,vy,vz) for set SENSOR and time  0.1640625E-02

      7572  2.992232E-01 -3.970124E-01  5.568418E+00

 displacements (vx,vy,vz) for set SENSOR and time  0.1679688E-02

      7572  4.087489E-01 -4.329659E-01  5.648344E+00

 displacements (vx,vy,vz) for set SENSOR and time  0.1718750E-02

      7572  3.780618E-01 -4.238867E-01  6.120700E+00

 displacements (vx,vy,vz) for set SENSOR and time  0.1757813E-02

      7572  1.867875E-01 -4.451064E-01  7.622120E+00

 displacements (vx,vy,vz) for set SENSOR and time  0.1796875E-02

      7572  1.013074E-01 -4.342308E-01  9.723040E+00

 displacements (vx,vy,vz) for set SENSOR and time  0.1835937E-02

      7572  1.904203E-01 -3.264143E-01  1.103969E+01

 displacements (vx,vy,vz) for set SENSOR and time  0.1875000E-02

      7572  2.164024E-01 -1.830119E-01  1.158998E+01

 displacements (vx,vy,vz) for set SENSOR and time  0.1914062E-02

      7572  1.035055E-01 -1.346280E-01  1.211636E+01

 displacements (vx,vy,vz) for set SENSOR and time  0.1953125E-02

      7572  3.539282E-02 -1.824636E-01  1.229949E+01

 displacements (vx,vy,vz) for set SENSOR and time  0.1992187E-02

      7572  9.167308E-02 -1.754652E-01  1.177342E+01

 displacements (vx,vy,vz) for set SENSOR and time  0.2031250E-02

      7572  1.728014E-01 -8.778171E-02  1.080830E+01

 displacements (vx,vy,vz) for set SENSOR and time  0.2070312E-02

      7572  1.983134E-01 -6.611764E-02  9.472247E+00

 displacements (vx,vy,vz) for set SENSOR and time  0.2109375E-02

      7572  1.671467E-01 -1.219217E-01  8.098905E+00

 displacements (vx,vy,vz) for set SENSOR and time  0.2148437E-02

      7572  1.256058E-01 -1.457387E-01  7.556563E+00

 displacements (vx,vy,vz) for set SENSOR and time  0.2187500E-02

      7572  1.174236E-01 -1.715504E-01  7.983780E+00

 displacements (vx,vy,vz) for set SENSOR and time  0.2226562E-02

      7572  1.297917E-01 -2.413232E-01  8.818947E+00

 displacements (vx,vy,vz) for set SENSOR and time  0.2265625E-02

      7572  1.494956E-01 -2.427027E-01  9.651913E+00

 displacements (vx,vy,vz) for set SENSOR and time  0.2304687E-02

      7572  1.978075E-01 -1.600973E-01  9.885262E+00

 displacements (vx,vy,vz) for set SENSOR and time  0.2343750E-02

      7572  2.368264E-01 -1.293944E-01  9.210376E+00

 displacements (vx,vy,vz) for set SENSOR and time  0.2382812E-02

      7572  1.947397E-01 -1.581396E-01  8.599262E+00

 displacements (vx,vy,vz) for set SENSOR and time  0.2421875E-02

      7572  9.928638E-02 -1.550715E-01  8.905194E+00

 displacements (vx,vy,vz) for set SENSOR and time  0.2460937E-02

      7572  2.875687E-02 -1.340039E-01  9.496394E+00

 displacements (vx,vy,vz) for set SENSOR and time  0.2500000E-02

      7572 -6.096679E-03 -1.322880E-01  9.644718E+00

 displacements (vx,vy,vz) for set SENSOR and time  0.2539062E-02

      7572 -3.136200E-02 -1.243577E-01  9.458362E+00

 displacements (vx,vy,vz) for set SENSOR and time  0.2578125E-02

      7572 -6.994237E-02 -9.386390E-02  8.938241E+00

 displacements (vx,vy,vz) for set SENSOR and time  0.2617187E-02

      7572 -1.485211E-01 -1.421402E-02  7.930131E+00

 displacements (vx,vy,vz) for set SENSOR and time  0.2656250E-02

      7572 -2.407467E-01  1.429260E-01  6.790254E+00

 displacements (vx,vy,vz) for set SENSOR and time  0.2695312E-02

      7572 -2.620057E-01  2.876474E-01  5.916203E+00

 displacements (vx,vy,vz) for set SENSOR and time  0.2734375E-02

      7572 -1.936920E-01  3.005234E-01  5.187896E+00

 displacements (vx,vy,vz) for set SENSOR and time  0.2773437E-02

      7572 -1.103675E-01  2.349539E-01  4.319453E+00

 displacements (vx,vy,vz) for set SENSOR and time  0.2812500E-02

      7572 -5.060262E-02  2.226372E-01  3.252975E+00

 displacements (vx,vy,vz) for set SENSOR and time  0.2851562E-02

      7572  6.970283E-03  2.576583E-01  2.122578E+00

 displacements (vx,vy,vz) for set SENSOR and time  0.2890625E-02

      7572  3.807257E-02  2.521299E-01  1.036467E+00

 displacements (vx,vy,vz) for set SENSOR and time  0.2929687E-02

      7572  4.709188E-03  2.111843E-01  5.461114E-02

 displacements (vx,vy,vz) for set SENSOR and time  0.2968750E-02

      7572 -2.419650E-02  2.031294E-01 -5.514059E-01

 displacements (vx,vy,vz) for set SENSOR and time  0.3007812E-02

      7572  4.338562E-02  2.154494E-01 -4.464425E-01

 displacements (vx,vy,vz) for set SENSOR and time  0.3046875E-02

      7572  1.592488E-01  1.808433E-01  2.441097E-01

 displacements (vx,vy,vz) for set SENSOR and time  0.3085937E-02

      7572  2.135506E-01  1.244324E-01  1.075577E+00

 displacements (vx,vy,vz) for set SENSOR and time  0.3125000E-02

      7572  2.067511E-01  1.270033E-01  1.772173E+00

 displacements (vx,vy,vz) for set SENSOR and time  0.3164062E-02

      7572  2.238256E-01  1.573743E-01  2.152707E+00

 displacements (vx,vy,vz) for set SENSOR and time  0.3203125E-02

      7572  3.083336E-01  1.294241E-01  2.125307E+00

 displacements (vx,vy,vz) for set SENSOR and time  0.3242187E-02

      7572  4.178778E-01  7.885103E-02  2.028899E+00

 displacements (vx,vy,vz) for set SENSOR and time  0.3281250E-02

      7572  4.726537E-01  7.847005E-02  2.328736E+00

 displacements (vx,vy,vz) for set SENSOR and time  0.3320312E-02

      7572  4.574672E-01  7.754227E-02  2.927990E+00

 displacements (vx,vy,vz) for set SENSOR and time  0.3359375E-02

      7572  4.407255E-01  1.470157E-02  3.313893E+00

 displacements (vx,vy,vz) for set SENSOR and time  0.3398437E-02

      7572  4.492592E-01 -5.505498E-02  3.241722E+00

 displacements (vx,vy,vz) for set SENSOR and time  0.3437500E-02

      7572  4.260035E-01 -8.468744E-02  2.891481E+00

 displacements (vx,vy,vz) for set SENSOR and time  0.3476562E-02

      7572  3.530242E-01 -1.208405E-01  2.596639E+00

 displacements (vx,vy,vz) for set SENSOR and time  0.3515625E-02

      7572  2.898329E-01 -1.902182E-01  2.769298E+00

 displacements (vx,vy,vz) for set SENSOR and time  0.3554687E-02

      7572  2.716761E-01 -2.448112E-01  3.763697E+00

 displacements (vx,vy,vz) for set SENSOR and time  0.3593750E-02

      7572  2.674124E-01 -2.436619E-01  5.349791E+00

 displacements (vx,vy,vz) for set SENSOR and time  0.3632812E-02

      7572  2.417036E-01 -1.987690E-01  6.702059E+00

 displacements (vx,vy,vz) for set SENSOR and time  0.3671875E-02

      7572  2.128524E-01 -1.426020E-01  7.321417E+00

 displacements (vx,vy,vz) for set SENSOR and time  0.3710937E-02

      7572  2.134796E-01 -8.594438E-02  7.382853E+00

 displacements (vx,vy,vz) for set SENSOR and time  0.3750000E-02

      7572  1.994879E-01 -2.026586E-02  7.024780E+00

 displacements (vx,vy,vz) for set SENSOR and time  0.3789062E-02

      7572  1.091196E-01  3.605936E-02  6.198987E+00

 displacements (vx,vy,vz) for set SENSOR and time  0.3828125E-02

      7572  1.559042E-02  4.338074E-02  5.150405E+00

 displacements (vx,vy,vz) for set SENSOR and time  0.3867187E-02

      7572  4.197040E-02 -8.378845E-05  4.238850E+00

 displacements (vx,vy,vz) for set SENSOR and time  0.3906250E-02

      7572  1.558672E-01 -7.386120E-02  3.638432E+00

 displacements (vx,vy,vz) for set SENSOR and time  0.3945312E-02

      7572  2.433984E-01 -1.685275E-01  3.460723E+00

 displacements (vx,vy,vz) for set SENSOR and time  0.3984375E-02

      7572  2.917621E-01 -2.356617E-01  3.508267E+00

 displacements (vx,vy,vz) for set SENSOR and time  0.4023437E-02

      7572  3.389019E-01 -2.155562E-01  3.232348E+00

 displacements (vx,vy,vz) for set SENSOR and time  0.4062500E-02

      7572  3.744301E-01 -1.495409E-01  2.536917E+00

 displacements (vx,vy,vz) for set SENSOR and time  0.4101562E-02

      7572  3.779652E-01 -1.100605E-01  1.898110E+00

 displacements (vx,vy,vz) for set SENSOR and time  0.4140625E-02

      7572  3.482400E-01 -6.547108E-02  1.569202E+00

 displacements (vx,vy,vz) for set SENSOR and time  0.4179687E-02

      7572  2.935146E-01  1.235549E-02  1.525841E+00

 displacements (vx,vy,vz) for set SENSOR and time  0.4218750E-02

      7572  2.403139E-01  3.542783E-02  1.792385E+00

 displacements (vx,vy,vz) for set SENSOR and time  0.4257812E-02

      7572  2.033268E-01 -5.096331E-02  2.220686E+00

 displacements (vx,vy,vz) for set SENSOR and time  0.4296875E-02

      7572  1.682937E-01 -1.719801E-01  2.584543E+00

 displacements (vx,vy,vz) for set SENSOR and time  0.4335937E-02

      7572  1.460387E-01 -2.567422E-01  2.928313E+00

 displacements (vx,vy,vz) for set SENSOR and time  0.4375000E-02

      7572  1.652120E-01 -3.007147E-01  3.306668E+00

 displacements (vx,vy,vz) for set SENSOR and time  0.4414062E-02

      7572  1.996560E-01 -2.950778E-01  3.644331E+00

 displacements (vx,vy,vz) for set SENSOR and time  0.4453125E-02

      7572  1.958550E-01 -2.336331E-01  3.973067E+00

 displacements (vx,vy,vz) for set SENSOR and time  0.4492187E-02

      7572  1.564278E-01 -1.556726E-01  4.244524E+00

 displacements (vx,vy,vz) for set SENSOR and time  0.4531250E-02

      7572  1.232873E-01 -1.119067E-01  4.275344E+00

 displacements (vx,vy,vz) for set SENSOR and time  0.4570312E-02

      7572  1.044443E-01 -1.243896E-01  4.151321E+00

 displacements (vx,vy,vz) for set SENSOR and time  0.4609375E-02

      7572  6.948895E-02 -1.781880E-01  4.070244E+00

 displacements (vx,vy,vz) for set SENSOR and time  0.4648437E-02

      7572  1.084285E-02 -2.296967E-01  3.989268E+00

 displacements (vx,vy,vz) for set SENSOR and time  0.4687500E-02

      7572 -3.001552E-02 -2.522693E-01  3.879918E+00

 displacements (vx,vy,vz) for set SENSOR and time  0.4726562E-02

      7572 -2.009857E-02 -2.568085E-01  3.740949E+00

 displacements (vx,vy,vz) for set SENSOR and time  0.4765625E-02

      7572  1.919451E-02 -2.407144E-01  3.371846E+00

 displacements (vx,vy,vz) for set SENSOR and time  0.4804687E-02

      7572  5.825180E-02 -1.772101E-01  2.776230E+00

 displacements (vx,vy,vz) for set SENSOR and time  0.4843750E-02

      7572  9.739043E-02 -7.650788E-02  2.285442E+00

 displacements (vx,vy,vz) for set SENSOR and time  0.4882812E-02

      7572  1.226009E-01  1.516913E-02  1.964202E+00

 displacements (vx,vy,vz) for set SENSOR and time  0.4921875E-02

      7572  9.281782E-02  8.409117E-02  1.650116E+00

 displacements (vx,vy,vz) for set SENSOR and time  0.4960937E-02

      7572  9.004361E-03  1.478472E-01  1.398097E+00

 displacements (vx,vy,vz) for set SENSOR and time  0.5000000E-02

      7572 -7.022084E-02  1.904617E-01  1.232602E+00

 displacements (vx,vy,vz) for set SENSOR and time  0.5039062E-02

      7572 -1.108311E-01  1.683626E-01  1.009925E+00

 displacements (vx,vy,vz) for set SENSOR and time  0.5078125E-02

      7572 -1.385662E-01  8.630986E-02  7.657712E-01

 displacements (vx,vy,vz) for set SENSOR and time  0.5117187E-02

      7572 -1.738624E-01  9.276520E-04  5.812918E-01

 displacements (vx,vy,vz) for set SENSOR and time  0.5156250E-02

      7572 -2.033931E-01 -6.349118E-02  3.311722E-01

 displacements (vx,vy,vz) for set SENSOR and time  0.5195312E-02

      7572 -2.302884E-01 -1.326137E-01 -4.737861E-02

 displacements (vx,vy,vz) for set SENSOR and time  0.5234375E-02

      7572 -2.722892E-01 -2.091589E-01 -4.875237E-01

 displacements (vx,vy,vz) for set SENSOR and time  0.5273437E-02

      7572 -3.083611E-01 -2.647525E-01 -9.424992E-01

 displacements (vx,vy,vz) for set SENSOR and time  0.5312500E-02

      7572 -3.087869E-01 -3.028746E-01 -1.211146E+00

 displacements (vx,vy,vz) for set SENSOR and time  0.5351562E-02

      7572 -2.943449E-01 -3.505023E-01 -1.054973E+00

 displacements (vx,vy,vz) for set SENSOR and time  0.5390625E-02

      7572 -2.932348E-01 -4.074316E-01 -6.269705E-01

 displacements (vx,vy,vz) for set SENSOR and time  0.5429687E-02

      7572 -2.890961E-01 -4.641655E-01 -2.402630E-01

 displacements (vx,vy,vz) for set SENSOR and time  0.5468750E-02

      7572 -2.604447E-01 -5.238266E-01  6.685957E-02

 displacements (vx,vy,vz) for set SENSOR and time  0.5507812E-02

      7572 -2.093024E-01 -5.687760E-01  2.978775E-01

 displacements (vx,vy,vz) for set SENSOR and time  0.5546875E-02

      7572 -1.355426E-01 -5.668311E-01  2.918886E-01

 displacements (vx,vy,vz) for set SENSOR and time  0.5585937E-02

      7572 -4.146802E-02 -5.247975E-01  5.386384E-03

 displacements (vx,vy,vz) for set SENSOR and time  0.5625000E-02

      7572  4.893807E-02 -4.779844E-01 -3.980876E-01

 displacements (vx,vy,vz) for set SENSOR and time  0.5664062E-02

      7572  1.142265E-01 -4.382017E-01 -7.608490E-01

 displacements (vx,vy,vz) for set SENSOR and time  0.5703125E-02

      7572  1.564398E-01 -4.000255E-01 -1.033857E+00

 displacements (vx,vy,vz) for set SENSOR and time  0.5742187E-02

      7572  1.812812E-01 -3.695207E-01 -1.272249E+00

 displacements (vx,vy,vz) for set SENSOR and time  0.5781250E-02

      7572  1.799837E-01 -3.483554E-01 -1.543270E+00

 displacements (vx,vy,vz) for set SENSOR and time  0.5820312E-02

      7572  1.424004E-01 -3.178866E-01 -1.795036E+00

 displacements (vx,vy,vz) for set SENSOR and time  0.5859375E-02

      7572  7.973205E-02 -2.628322E-01 -1.931519E+00

 displacements (vx,vy,vz) for set SENSOR and time  0.5898437E-02

      7572  2.042807E-02 -1.932055E-01 -1.931624E+00

 displacements (vx,vy,vz) for set SENSOR and time  0.5937500E-02

      7572 -1.956823E-02 -1.363990E-01 -1.758185E+00

 displacements (vx,vy,vz) for set SENSOR and time  0.5976562E-02

      7572 -4.794111E-02 -1.135029E-01 -1.320696E+00

 displacements (vx,vy,vz) for set SENSOR and time  0.6015625E-02

      7572 -7.739548E-02 -1.180118E-01 -5.992794E-01

 displacements (vx,vy,vz) for set SENSOR and time  0.6054687E-02

      7572 -1.098986E-01 -1.218699E-01  3.214509E-01

 displacements (vx,vy,vz) for set SENSOR and time  0.6093750E-02

      7572 -1.380507E-01 -1.078391E-01  1.265091E+00

 displacements (vx,vy,vz) for set SENSOR and time  0.6132812E-02

      7572 -1.626437E-01 -8.058165E-02  1.975215E+00

 displacements (vx,vy,vz) for set SENSOR and time  0.6171875E-02

      7572 -2.043955E-01 -5.029833E-02  2.329208E+00

 displacements (vx,vy,vz) for set SENSOR and time  0.6210937E-02

      7572 -2.720447E-01 -3.224250E-02  2.533210E+00

 displacements (vx,vy,vz) for set SENSOR and time  0.6250000E-02

      7572 -3.318577E-01 -4.422620E-02  2.892252E+00

 displacements (vx,vy,vz) for set SENSOR and time  0.6289062E-02

      7572 -3.486323E-01 -7.278081E-02  3.460459E+00

 displacements (vx,vy,vz) for set SENSOR and time  0.6328125E-02

      7572 -3.294968E-01 -7.498904E-02  4.099619E+00

 displacements (vx,vy,vz) for set SENSOR and time  0.6367187E-02

      7572 -2.950249E-01 -4.216947E-02  4.755912E+00

 displacements (vx,vy,vz) for set SENSOR and time  0.6406250E-02

      7572 -2.518053E-01 -1.579957E-02  5.471305E+00

 displacements (vx,vy,vz) for set SENSOR and time  0.6445312E-02

      7572 -2.096051E-01 -2.072142E-02  6.213905E+00

 displacements (vx,vy,vz) for set SENSOR and time  0.6484375E-02

      7572 -1.800303E-01 -3.352619E-02  6.906095E+00

 displacements (vx,vy,vz) for set SENSOR and time  0.6523437E-02

      7572 -1.594593E-01 -2.715281E-02  7.549925E+00

 displacements (vx,vy,vz) for set SENSOR and time  0.6562500E-02

      7572 -1.395013E-01 -1.376708E-03  8.132665E+00

 displacements (vx,vy,vz) for set SENSOR and time  0.6601562E-02

      7572 -1.198250E-01  3.354202E-02  8.524890E+00

 displacements (vx,vy,vz) for set SENSOR and time  0.6640625E-02

      7572 -1.049892E-01  7.049837E-02  8.665034E+00

 displacements (vx,vy,vz) for set SENSOR and time  0.6679687E-02

      7572 -9.815496E-02  1.021525E-01  8.682932E+00

 displacements (vx,vy,vz) for set SENSOR and time  0.6718750E-02

      7572 -9.199972E-02  1.216718E-01  8.684028E+00

 displacements (vx,vy,vz) for set SENSOR and time  0.6757812E-02

      7572 -7.628584E-02  1.290228E-01  8.599933E+00

 displacements (vx,vy,vz) for set SENSOR and time  0.6796875E-02

      7572 -5.962936E-02  1.300583E-01  8.336893E+00

 displacements (vx,vy,vz) for set SENSOR and time  0.6835937E-02

      7572 -5.570075E-02  1.266927E-01  7.892768E+00

 displacements (vx,vy,vz) for set SENSOR and time  0.6875000E-02

      7572 -5.632709E-02  1.143857E-01  7.313197E+00

 displacements (vx,vy,vz) for set SENSOR and time  0.6914062E-02

      7572 -5.090903E-02  9.387384E-02  6.650037E+00

 displacements (vx,vy,vz) for set SENSOR and time  0.6953125E-02

      7572 -4.740800E-02  7.324218E-02  5.926368E+00

 displacements (vx,vy,vz) for set SENSOR and time  0.6992187E-02

      7572 -5.038014E-02  5.367747E-02  5.110224E+00

 displacements (vx,vy,vz) for set SENSOR and time  0.7031250E-02

      7572 -4.820126E-02  3.132061E-02  4.189668E+00

 displacements (vx,vy,vz) for set SENSOR and time  0.7070312E-02

      7572 -2.852081E-02  1.383375E-02  3.259598E+00

 displacements (vx,vy,vz) for set SENSOR and time  0.7109375E-02

      7572  1.210612E-02  1.245319E-02  2.474499E+00

 displacements (vx,vy,vz) for set SENSOR and time  0.7148437E-02

      7572  6.342606E-02  2.250372E-02  1.919384E+00

 displacements (vx,vy,vz) for set SENSOR and time  0.7187500E-02

      7572  1.050292E-01  3.454285E-02  1.542146E+00

 displacements (vx,vy,vz) for set SENSOR and time  0.7226562E-02

      7572  1.285469E-01  5.281459E-02  1.217332E+00

 displacements (vx,vy,vz) for set SENSOR and time  0.7265625E-02

      7572  1.426418E-01  7.966370E-02  8.660539E-01

 displacements (vx,vy,vz) for set SENSOR and time  0.7304687E-02

      7572  1.509566E-01  9.633941E-02  5.011873E-01

 displacements (vx,vy,vz) for set SENSOR and time  0.7343750E-02

      7572  1.444451E-01  8.120553E-02  2.094155E-01

 displacements (vx,vy,vz) for set SENSOR and time  0.7382812E-02

      7572  1.131965E-01  3.528587E-02  1.007338E-01

 displacements (vx,vy,vz) for set SENSOR and time  0.7421875E-02

      7572  5.923759E-02 -2.464730E-02  1.695945E-01

 displacements (vx,vy,vz) for set SENSOR and time  0.7460938E-02

      7572  4.231607E-03 -8.437664E-02  2.197610E-01

 displacements (vx,vy,vz) for set SENSOR and time  0.7500000E-02

      7572 -2.742804E-02 -1.335543E-01  4.878608E-02

 displacements (vx,vy,vz) for set SENSOR and time  0.7539063E-02

      7572 -3.579400E-02 -1.659740E-01 -3.579798E-01

 displacements (vx,vy,vz) for set SENSOR and time  0.7578125E-02

      7572 -3.407043E-02 -1.885171E-01 -8.950710E-01

 displacements (vx,vy,vz) for set SENSOR and time  0.7617188E-02

      7572 -2.398505E-02 -2.155904E-01 -1.450515E+00

 displacements (vx,vy,vz) for set SENSOR and time  0.7656250E-02

      7572 -6.905666E-03 -2.511914E-01 -1.901715E+00

 displacements (vx,vy,vz) for set SENSOR and time  0.7695313E-02

      7572  6.699715E-03 -2.901005E-01 -2.152183E+00

 displacements (vx,vy,vz) for set SENSOR and time  0.7734375E-02

      7572  1.570163E-02 -3.312729E-01 -2.198785E+00

 displacements (vx,vy,vz) for set SENSOR and time  0.7773438E-02

      7572  2.955401E-02 -3.716374E-01 -2.111385E+00

 displacements (vx,vy,vz) for set SENSOR and time  0.7812500E-02

      7572  5.028354E-02 -3.939668E-01 -1.996600E+00

 displacements (vx,vy,vz) for set SENSOR and time  0.7851563E-02

      7572  7.259949E-02 -3.801861E-01 -1.957748E+00

 displacements (vx,vy,vz) for set SENSOR and time  0.7890625E-02

      7572  9.149931E-02 -3.318923E-01 -2.013627E+00

 displacements (vx,vy,vz) for set SENSOR and time  0.7929688E-02

      7572  1.024454E-01 -2.649798E-01 -2.106844E+00

 displacements (vx,vy,vz) for set SENSOR and time  0.7968750E-02

      7572  1.065839E-01 -1.915722E-01 -2.196445E+00

 displacements (vx,vy,vz) for set SENSOR and time  0.8007813E-02

      7572  1.135530E-01 -1.178068E-01 -2.256229E+00

 displacements (vx,vy,vz) for set SENSOR and time  0.8046875E-02

      7572  1.322440E-01 -5.135445E-02 -2.240617E+00

 displacements (vx,vy,vz) for set SENSOR and time  0.8085938E-02

      7572  1.629233E-01 -4.831998E-04 -2.141829E+00

 displacements (vx,vy,vz) for set SENSOR and time  0.8125000E-02

      7572  1.961346E-01  3.087473E-02 -2.021209E+00

 displacements (vx,vy,vz) for set SENSOR and time  0.8164063E-02

      7572  2.177572E-01  4.287399E-02 -1.959789E+00

 displacements (vx,vy,vz) for set SENSOR and time  0.8203125E-02

      7572  2.204088E-01  4.020347E-02 -2.013203E+00

 displacements (vx,vy,vz) for set SENSOR and time  0.8242188E-02

      7572  2.064208E-01  3.486280E-02 -2.164537E+00

 displacements (vx,vy,vz) for set SENSOR and time  0.8281250E-02

      7572  1.805121E-01  4.095295E-02 -2.312788E+00

 displacements (vx,vy,vz) for set SENSOR and time  0.8320313E-02

      7572  1.490223E-01  6.344552E-02 -2.369716E+00

 displacements (vx,vy,vz) for set SENSOR and time  0.8359375E-02

      7572  1.180505E-01  9.597923E-02 -2.323022E+00

 displacements (vx,vy,vz) for set SENSOR and time  0.8398438E-02

      7572  8.322677E-02  1.290771E-01 -2.170599E+00

 displacements (vx,vy,vz) for set SENSOR and time  0.8437500E-02

      7572  3.483247E-02  1.562215E-01 -1.888962E+00

 displacements (vx,vy,vz) for set SENSOR and time  0.8476563E-02

      7572 -2.467143E-02  1.726505E-01 -1.475321E+00

 displacements (vx,vy,vz) for set SENSOR and time  0.8515625E-02

      7572 -8.300901E-02  1.735681E-01 -9.403013E-01

 displacements (vx,vy,vz) for set SENSOR and time  0.8554688E-02

      7572 -1.329754E-01  1.594130E-01 -2.997209E-01

 displacements (vx,vy,vz) for set SENSOR and time  0.8593750E-02

      7572 -1.747468E-01  1.429361E-01  3.839184E-01

 displacements (vx,vy,vz) for set SENSOR and time  0.8632813E-02

      7572 -2.126958E-01  1.416959E-01  1.030108E+00

 displacements (vx,vy,vz) for set SENSOR and time  0.8671875E-02

      7572 -2.535711E-01  1.596266E-01  1.624247E+00

 displacements (vx,vy,vz) for set SENSOR and time  0.8710938E-02

      7572 -2.992005E-01  1.858382E-01  2.208956E+00

 displacements (vx,vy,vz) for set SENSOR and time  0.8750000E-02

      7572 -3.413386E-01  2.121926E-01  2.818512E+00

 displacements (vx,vy,vz) for set SENSOR and time  0.8789063E-02

      7572 -3.667172E-01  2.379117E-01  3.465764E+00

 displacements (vx,vy,vz) for set SENSOR and time  0.8828125E-02

      7572 -3.667335E-01  2.587059E-01  4.146608E+00

 displacements (vx,vy,vz) for set SENSOR and time  0.8867188E-02

      7572 -3.462404E-01  2.676627E-01  4.823544E+00

 displacements (vx,vy,vz) for set SENSOR and time  0.8906250E-02

      7572 -3.210793E-01  2.646168E-01  5.433208E+00

 displacements (vx,vy,vz) for set SENSOR and time  0.8945313E-02

      7572 -3.003795E-01  2.542840E-01  5.919445E+00

 displacements (vx,vy,vz) for set SENSOR and time  0.8984375E-02

      7572 -2.784797E-01  2.427159E-01  6.248871E+00

 displacements (vx,vy,vz) for set SENSOR and time  0.9023438E-02

      7572 -2.502184E-01  2.398371E-01  6.415534E+00

 displacements (vx,vy,vz) for set SENSOR and time  0.9062500E-02

      7572 -2.210556E-01  2.519129E-01  6.460068E+00

 displacements (vx,vy,vz) for set SENSOR and time  0.9101563E-02

      7572 -1.954173E-01  2.696009E-01  6.474584E+00

 displacements (vx,vy,vz) for set SENSOR and time  0.9140625E-02

      7572 -1.676528E-01  2.763735E-01  6.554372E+00

 displacements (vx,vy,vz) for set SENSOR and time  0.9179688E-02

      7572 -1.311475E-01  2.666458E-01  6.733969E+00

 displacements (vx,vy,vz) for set SENSOR and time  0.9218750E-02

      7572 -8.882984E-02  2.457426E-01  6.976529E+00

 displacements (vx,vy,vz) for set SENSOR and time  0.9257813E-02

      7572 -4.918549E-02  2.190488E-01  7.210614E+00

 displacements (vx,vy,vz) for set SENSOR and time  0.9296875E-02

      7572 -1.550731E-02  1.906758E-01  7.366027E+00

 displacements (vx,vy,vz) for set SENSOR and time  0.9335938E-02

      7572  1.460430E-02  1.662467E-01  7.399411E+00

 displacements (vx,vy,vz) for set SENSOR and time  0.9375000E-02

      7572  4.101989E-02  1.490474E-01  7.312771E+00

 displacements (vx,vy,vz) for set SENSOR and time  0.9414063E-02

      7572  6.103713E-02  1.360647E-01  7.150919E+00

 displacements (vx,vy,vz) for set SENSOR and time  0.9453125E-02

      7572  7.623685E-02  1.212329E-01  6.970721E+00

 displacements (vx,vy,vz) for set SENSOR and time  0.9492188E-02

      7572  9.054092E-02  1.008969E-01  6.789441E+00

 displacements (vx,vy,vz) for set SENSOR and time  0.9531250E-02

      7572  1.037620E-01  7.462143E-02  6.552338E+00

 displacements (vx,vy,vz) for set SENSOR and time  0.9570313E-02

      7572  1.135266E-01  4.291021E-02  6.171605E+00

 displacements (vx,vy,vz) for set SENSOR and time  0.9609375E-02

      7572  1.193605E-01  7.053384E-03  5.603612E+00

 displacements (vx,vy,vz) for set SENSOR and time  0.9648438E-02

      7572  1.214111E-01 -2.996597E-02  4.877954E+00

 displacements (vx,vy,vz) for set SENSOR and time  0.9687500E-02

      7572  1.204702E-01 -6.512164E-02  4.073678E+00

 displacements (vx,vy,vz) for set SENSOR and time  0.9726563E-02

      7572  1.216416E-01 -9.626932E-02  3.283963E+00

 displacements (vx,vy,vz) for set SENSOR and time  0.9765625E-02

      7572  1.339009E-01 -1.199997E-01  2.572977E+00