
 displacements (vx,vy,vz) for set SENSOR and time  0.3906250E-04

      7572  2.746950E-02  3.891565E-02  1.922209E-01

 displacements (vx,vy,vz) for set SENSOR and time  0.7812500E-04

      7572  1.131699E-01  1.558269E-01  5.580270E-01

 displacements (vx,vy,vz) for set SENSOR and time  0.1171875E-03

      7572  4.370289E-02  5.085422E-02 -4.287859E-01

 displacements (vx,vy,vz) for set SENSOR and time  0.1562500E-03

      7572 -1.461610E-01 -1.908233E-01 -9.096216E-01

 displacements (vx,vy,vz) for set SENSOR and time  0.1953125E-03

      7572 -2.062232E-01 -2.259957E-01  1.088203E+00

 displacements (vx,vy,vz) for set SENSOR and time  0.2343750E-03

      7572  1.109335E-02  5.428768E-02  3.234022E+00

 displacements (vx,vy,vz) for set SENSOR and time  0.2734375E-03

      7572  3.630000E-01  3.971700E-01  1.961034E+00

 displacements (vx,vy,vz) for set SENSOR and time  0.3125000E-03

      7572  5.652360E-01  5.222440E-01 -2.206396E+00

 displacements (vx,vy,vz) for set SENSOR and time  0.3515625E-03

      7572  4.937603E-01  4.310062E-01 -5.862408E+00

 displacements (vx,vy,vz) for set SENSOR and time  0.3906250E-03

      7572  2.639061E-01  2.963037E-01 -7.751890E+00

 displacements (vx,vy,vz) for set SENSOR and time  0.4296875E-03

      7572  3.209391E-02  1.579718E-01 -9.056090E+00

 displacements (vx,vy,vz) for set SENSOR and time  0.4687500E-03

      7572 -1.653306E-01 -1.027590E-01 -9.707355E+00

 displacements (vx,vy,vz) for set SENSOR and time  0.5078125E-03

      7572 -3.463512E-01 -4.876814E-01 -8.213705E+00

 displacements (vx,vy,vz) for set SENSOR and time  0.5468750E-03

      7572 -4.776661E-01 -7.498883E-01 -4.988733E+00

 displacements (vx,vy,vz) for set SENSOR and time  0.5859375E-03

      7572 -5.236057E-01 -6.557640E-01 -2.394234E+00

 displacements (vx,vy,vz) for set SENSOR and time  0.6250000E-03

      7572 -5.258636E-01 -3.122949E-01 -1.156715E+00

 displacements (vx,vy,vz) for set SENSOR and time  0.6640625E-03

      7572 -5.408480E-01 -9.679359E-02  1.634905E-01

 displacements (vx,vy,vz) for set SENSOR and time  0.7031250E-03

      7572 -5.505359E-01 -2.410151E-01  1.756499E+00

 displacements (vx,vy,vz) for set SENSOR and time  0.7421875E-03

      7572 -5.264319E-01 -5.853376E-01  1.892302E+00

 displacements (vx,vy,vz) for set SENSOR and time  0.7812500E-03

      7572 -5.268456E-01 -7.996896E-01  5.695209E-01

 displacements (vx,vy,vz) for set SENSOR and time  0.8203125E-03

      7572 -6.161221E-01 -7.694073E-01  5.974722E-01

 displacements (vx,vy,vz) for set SENSOR and time  0.8593750E-03

      7572 -7.273073E-01 -6.682343E-01  3.462005E+00

 displacements (vx,vy,vz) for set SENSOR and time  0.8984375E-03

      7572 -7.430155E-01 -6.847467E-01  6.984000E+00

 displacements (vx,vy,vz) for set SENSOR and time  0.9375000E-03

      7572 -6.981721E-01 -7.974568E-01  9.081219E+00

 displacements (vx,vy,vz) for set SENSOR and time  0.9765625E-03

      7572 -7.408016E-01 -8.591341E-01  1.120522E+01

 displacements (vx,vy,vz) for set SENSOR and time  0.1015625E-02

      7572 -8.647525E-01 -8.148708E-01  1.542076E+01

 displacements (vx,vy,vz) for set SENSOR and time  0.1054688E-02

      7572 -8.623682E-01 -7.563671E-01  2.022001E+01

 displacements (vx,vy,vz) for set SENSOR and time  0.1093750E-02

      7572 -6.406599E-01 -7.927253E-01  2.246230E+01

 displacements (vx,vy,vz) for set SENSOR and time  0.1132813E-02

      7572 -4.244013E-01 -9.367337E-01  2.224395E+01

 displacements (vx,vy,vz) for set SENSOR and time  0.1171875E-02

      7572 -4.766578E-01 -1.108363E+00  2.251643E+01

 displacements (vx,vy,vz) for set SENSOR and time  0.1210938E-02

      7572 -7.117937E-01 -1.192663E+00  2.429981E+01

 displacements (vx,vy,vz) for set SENSOR and time  0.1250000E-02

      7572 -7.870670E-01 -1.103136E+00  2.550988E+01

 displacements (vx,vy,vz) for set SENSOR and time  0.1289063E-02

      7572 -5.628654E-01 -8.579294E-01  2.482954E+01

 displacements (vx,vy,vz) for set SENSOR and time  0.1328125E-02

      7572 -2.779994E-01 -6.055035E-01  2.376642E+01

 displacements (vx,vy,vz) for set SENSOR and time  0.1367188E-02

      7572 -2.175525E-01 -5.034153E-01  2.391840E+01

 displacements (vx,vy,vz) for set SENSOR and time  0.1406250E-02

      7572 -3.712540E-01 -5.361229E-01  2.468597E+01

 displacements (vx,vy,vz) for set SENSOR and time  0.1445313E-02

      7572 -5.227980E-01 -5.172469E-01  2.504118E+01

 displacements (vx,vy,vz) for set SENSOR and time  0.1484375E-02

      7572 -5.557964E-01 -3.276974E-01  2.556398E+01

 displacements (vx,vy,vz) for set SENSOR and time  0.1523438E-02

      7572 -5.284812E-01 -9.262663E-02  2.710328E+01

 displacements (vx,vy,vz) for set SENSOR and time  0.1562500E-02

      7572 -5.025654E-01 -3.280377E-02  2.885493E+01

 displacements (vx,vy,vz) for set SENSOR and time  0.1601563E-02

      7572 -4.538582E-01 -1.685548E-01  2.943064E+01

 displacements (vx,vy,vz) for set SENSOR and time  0.1640625E-02

      7572 -3.723882E-01 -2.846858E-01  2.890282E+01

 displacements (vx,vy,vz) for set SENSOR and time  0.1679688E-02

      7572 -3.310526E-01 -2.144323E-01  2.833036E+01

 displacements (vx,vy,vz) for set SENSOR and time  0.1718750E-02

      7572 -3.881696E-01 -5.237579E-02  2.800517E+01

 displacements (vx,vy,vz) for set SENSOR and time  0.1757813E-02

      7572 -4.862601E-01 -8.989040E-03  2.759118E+01

 displacements (vx,vy,vz) for set SENSOR and time  0.1796875E-02

      7572 -5.205131E-01 -1.225501E-01  2.745458E+01

 displacements (vx,vy,vz) for set SENSOR and time  0.1835937E-02

      7572 -4.828726E-01 -2.232429E-01  2.842657E+01

 displacements (vx,vy,vz) for set SENSOR and time  0.1875000E-02

      7572 -4.693315E-01 -1.695258E-01  3.044357E+01

 displacements (vx,vy,vz) for set SENSOR and time  0.1914062E-02

      7572 -5.359127E-01 -1.364026E-02  3.254579E+01

 displacements (vx,vy,vz) for set SENSOR and time  0.1953125E-02

      7572 -6.035426E-01  1.032402E-01  3.402987E+01

 displacements (vx,vy,vz) for set SENSOR and time  0.1992187E-02

      7572 -5.454640E-01  1.380709E-01  3.465991E+01

 displacements (vx,vy,vz) for set SENSOR and time  0.2031250E-02

      7572 -3.462640E-01  1.570227E-01  3.413897E+01

 displacements (vx,vy,vz) for set SENSOR and time  0.2070312E-02

      7572 -1.307989E-01  2.002154E-01  3.253655E+01

 displacements (vx,vy,vz) for set SENSOR and time  0.2109375E-02

      7572 -3.524437E-02  2.198022E-01  3.096352E+01

 displacements (vx,vy,vz) for set SENSOR and time  0.2148437E-02

      7572 -8.785693E-02  1.631919E-01  3.057128E+01

 displacements (vx,vy,vz) for set SENSOR and time  0.2187500E-02

      7572 -2.255243E-01  5.552945E-02  3.102115E+01

 displacements (vx,vy,vz) for set SENSOR and time  0.2226562E-02

      7572 -3.775346E-01 -3.699393E-02  3.121597E+01

 displacements (vx,vy,vz) for set SENSOR and time  0.2265625E-02

      7572 -4.937823E-01 -9.146501E-02  3.139029E+01

 displacements (vx,vy,vz) for set SENSOR and time  0.2304687E-02

      7572 -5.339890E-01 -1.321705E-01  3.286320E+01

 displacements (vx,vy,vz) for set SENSOR and time  0.2343750E-02

      7572 -5.035754E-01 -1.643873E-01  3.550216E+01

 displacements (vx,vy,vz) for set SENSOR and time  0.2382812E-02

      7572 -4.926395E-01 -1.558657E-01  3.721481E+01

 displacements (vx,vy,vz) for set SENSOR and time  0.2421875E-02

      7572 -5.980127E-01 -1.020546E-01  3.677998E+01

 displacements (vx,vy,vz) for set SENSOR and time  0.2460937E-02

      7572 -7.814729E-01 -7.006654E-02  3.566310E+01

 displacements (vx,vy,vz) for set SENSOR and time  0.2500000E-02

      7572 -8.776909E-01 -1.335803E-01  3.585355E+01

 displacements (vx,vy,vz) for set SENSOR and time  0.2539062E-02

      7572 -7.883472E-01 -2.723200E-01  3.714307E+01

 displacements (vx,vy,vz) for set SENSOR and time  0.2578125E-02

      7572 -6.041629E-01 -3.811556E-01  3.800238E+01

 displacements (vx,vy,vz) for set SENSOR and time  0.2617187E-02

      7572 -4.713978E-01 -3.939835E-01  3.823483E+01

 displacements (vx,vy,vz) for set SENSOR and time  0.2656250E-02

      7572 -3.978373E-01 -3.613019E-01  3.900813E+01

 displacements (vx,vy,vz) for set SENSOR and time  0.2695312E-02

      7572 -2.860393E-01 -3.735565E-01  4.060685E+01

 displacements (vx,vy,vz) for set SENSOR and time  0.2734375E-02

      7572 -1.223894E-01 -4.365744E-01  4.188199E+01

 displacements (vx,vy,vz) for set SENSOR and time  0.2773437E-02

      7572 -1.032936E-02 -4.752392E-01  4.208123E+01

 displacements (vx,vy,vz) for set SENSOR and time  0.2812500E-02

      7572 -5.415680E-03 -4.558418E-01  4.176717E+01

 displacements (vx,vy,vz) for set SENSOR and time  0.2851562E-02

      7572 -3.914103E-02 -4.435851E-01  4.154222E+01

 displacements (vx,vy,vz) for set SENSOR and time  0.2890625E-02

      7572 -5.684828E-02 -5.101815E-01  4.113477E+01

 displacements (vx,vy,vz) for set SENSOR and time  0.2929687E-02

      7572 -1.201016E-01 -6.316764E-01  4.030386E+01

 displacements (vx,vy,vz) for set SENSOR and time  0.2968750E-02

      7572 -2.805310E-01 -7.275033E-01  3.952140E+01

 displacements (vx,vy,vz) for set SENSOR and time  0.3007812E-02

      7572 -4.344962E-01 -7.741512E-01  3.900038E+01

 displacements (vx,vy,vz) for set SENSOR and time  0.3046875E-02

      7572 -4.285934E-01 -8.179931E-01  3.797253E+01

 displacements (vx,vy,vz) for set SENSOR and time  0.3085937E-02

      7572 -2.789307E-01 -8.764272E-01  3.585692E+01

 displacements (vx,vy,vz) for set SENSOR and time  0.3125000E-02

      7572 -1.601987E-01 -8.919455E-01  3.348620E+01

 displacements (vx,vy,vz) for set SENSOR and time  0.3164062E-02

      7572 -1.686822E-01 -8.166290E-01  3.217731E+01

 displacements (vx,vy,vz) for set SENSOR and time  0.3203125E-02

      7572 -2.119538E-01 -6.972055E-01  3.199252E+01

 displacements (vx,vy,vz) for set SENSOR and time  0.3242187E-02

      7572 -1.729567E-01 -6.277842E-01  3.192115E+01

 displacements (vx,vy,vz) for set SENSOR and time  0.3281250E-02

      7572 -7.905217E-02 -6.365122E-01  3.156766E+01

 displacements (vx,vy,vz) for set SENSOR and time  0.3320312E-02

      7572 -3.300091E-02 -6.643017E-01  3.159192E+01

 displacements (vx,vy,vz) for set SENSOR and time  0.3359375E-02

      7572 -4.871204E-02 -6.516761E-01  3.236216E+01

 displacements (vx,vy,vz) for set SENSOR and time  0.3398437E-02

      7572 -5.035352E-02 -6.037580E-01  3.314464E+01

 displacements (vx,vy,vz) for set SENSOR and time  0.3437500E-02

      7572 -1.799722E-03 -5.602782E-01  3.307796E+01

 displacements (vx,vy,vz) for set SENSOR and time  0.3476562E-02

      7572  5.544782E-02 -5.403234E-01  3.230408E+01

 displacements (vx,vy,vz) for set SENSOR and time  0.3515625E-02

      7572  8.943531E-02 -5.421114E-01  3.160813E+01

 displacements (vx,vy,vz) for set SENSOR and time  0.3554687E-02

      7572  1.187666E-01 -5.735476E-01  3.132843E+01

 displacements (vx,vy,vz) for set SENSOR and time  0.3593750E-02

      7572  1.464724E-01 -6.498650E-01  3.113652E+01

 displacements (vx,vy,vz) for set SENSOR and time  0.3632812E-02

      7572  1.235886E-01 -7.629405E-01  3.069996E+01

 displacements (vx,vy,vz) for set SENSOR and time  0.3671875E-02

      7572  2.086079E-02 -8.751098E-01  3.008242E+01

 displacements (vx,vy,vz) for set SENSOR and time  0.3710937E-02

      7572 -1.082325E-01 -9.496906E-01  2.947415E+01

 displacements (vx,vy,vz) for set SENSOR and time  0.3750000E-02

      7572 -1.832057E-01 -9.791200E-01  2.886428E+01

 displacements (vx,vy,vz) for set SENSOR and time  0.3789062E-02

      7572 -1.916574E-01 -9.821456E-01  2.811843E+01

 displacements (vx,vy,vz) for set SENSOR and time  0.3828125E-02

      7572 -1.861156E-01 -9.802474E-01  2.724145E+01

 displacements (vx,vy,vz) for set SENSOR and time  0.3867187E-02

      7572 -1.977471E-01 -9.767196E-01  2.642225E+01

 displacements (vx,vy,vz) for set SENSOR and time  0.3906250E-02

      7572 -1.942558E-01 -9.545735E-01  2.578842E+01

 displacements (vx,vy,vz) for set SENSOR and time  0.3945312E-02

      7572 -1.266137E-01 -8.985713E-01  2.517769E+01

 displacements (vx,vy,vz) for set SENSOR and time  0.3984375E-02

      7572  1.310023E-02 -8.241375E-01  2.429537E+01

 displacements (vx,vy,vz) for set SENSOR and time  0.4023437E-02

      7572  1.867364E-01 -7.764973E-01  2.317399E+01

 displacements (vx,vy,vz) for set SENSOR and time  0.4062500E-02

      7572  3.342320E-01 -7.893424E-01  2.231566E+01

 displacements (vx,vy,vz) for set SENSOR and time  0.4101562E-02

      7572  3.895868E-01 -8.484448E-01  2.218490E+01

 displacements (vx,vy,vz) for set SENSOR and time  0.4140625E-02

      7572  3.030440E-01 -9.098438E-01  2.268748E+01

 displacements (vx,vy,vz) for set SENSOR and time  0.4179687E-02

      7572  8.659858E-02 -9.521771E-01  2.341738E+01

 displacements (vx,vy,vz) for set SENSOR and time  0.4218750E-02

      7572 -1.596292E-01 -9.939879E-01  2.429527E+01

 displacements (vx,vy,vz) for set SENSOR and time  0.4257812E-02

      7572 -2.989741E-01 -1.055831E+00  2.554825E+01

 displacements (vx,vy,vz) for set SENSOR and time  0.4296875E-02

      7572 -2.664814E-01 -1.124531E+00  2.706398E+01

 displacements (vx,vy,vz) for set SENSOR and time  0.4335937E-02

      7572 -1.272993E-01 -1.168468E+00  2.828066E+01

 displacements (vx,vy,vz) for set SENSOR and time  0.4375000E-02

      7572 -1.134806E-02 -1.175122E+00  2.891587E+01

 displacements (vx,vy,vz) for set SENSOR and time  0.4414062E-02

      7572  1.356418E-02 -1.154579E+00  2.932607E+01

 displacements (vx,vy,vz) for set SENSOR and time  0.4453125E-02

      7572 -1.112800E-02 -1.109984E+00  2.981244E+01

 displacements (vx,vy,vz) for set SENSOR and time  0.4492187E-02

      7572 -1.662161E-02 -1.023924E+00  3.002857E+01

 displacements (vx,vy,vz) for set SENSOR and time  0.4531250E-02

      7572 -5.456041E-03 -8.804783E-01  2.960910E+01

 displacements (vx,vy,vz) for set SENSOR and time  0.4570312E-02

      7572 -3.725412E-02 -6.916142E-01  2.907592E+01

 displacements (vx,vy,vz) for set SENSOR and time  0.4609375E-02

      7572 -1.307333E-01 -4.987634E-01  2.944107E+01

 displacements (vx,vy,vz) for set SENSOR and time  0.4648437E-02

      7572 -2.278224E-01 -3.558572E-01  3.095418E+01

 displacements (vx,vy,vz) for set SENSOR and time  0.4687500E-02

      7572 -2.707455E-01 -3.079276E-01  3.286192E+01

 displacements (vx,vy,vz) for set SENSOR and time  0.4726562E-02

      7572 -2.758016E-01 -3.651543E-01  3.448137E+01

 displacements (vx,vy,vz) for set SENSOR and time  0.4765625E-02

      7572 -2.978577E-01 -4.819590E-01  3.589373E+01

 displacements (vx,vy,vz) for set SENSOR and time  0.4804687E-02

      7572 -3.468134E-01 -5.723436E-01  3.734373E+01

 displacements (vx,vy,vz) for set SENSOR and time  0.4843750E-02

      7572 -3.821003E-01 -5.700852E-01  3.853597E+01

 displacements (vx,vy,vz) for set SENSOR and time  0.4882812E-02

      7572 -3.818357E-01 -4.837058E-01  3.897299E+01

 displacements (vx,vy,vz) for set SENSOR and time  0.4921875E-02

      7572 -3.725820E-01 -3.843387E-01  3.861919E+01

 displacements (vx,vy,vz) for set SENSOR and time  0.4960937E-02

      7572 -3.821523E-01 -3.342376E-01  3.776649E+01

 displacements (vx,vy,vz) for set SENSOR and time  0.5000000E-02

      7572 -4.021287E-01 -3.331056E-01  3.651594E+01

 displacements (vx,vy,vz) for set SENSOR and time  0.5039062E-02

      7572 -4.166652E-01 -3.363607E-01  3.492169E+01

 displacements (vx,vy,vz) for set SENSOR and time  0.5078125E-02

      7572 -4.362203E-01 -3.123541E-01  3.352401E+01

 displacements (vx,vy,vz) for set SENSOR and time  0.5117187E-02

      7572 -4.738959E-01 -2.675005E-01  3.317323E+01

 displacements (vx,vy,vz) for set SENSOR and time  0.5156250E-02

      7572 -5.102119E-01 -2.220502E-01  3.420359E+01

 displacements (vx,vy,vz) for set SENSOR and time  0.5195312E-02

      7572 -5.152483E-01 -1.835648E-01  3.613833E+01

 displacements (vx,vy,vz) for set SENSOR and time  0.5234375E-02

      7572 -4.955279E-01 -1.542465E-01  3.829257E+01

 displacements (vx,vy,vz) for set SENSOR and time  0.5273437E-02

      7572 -4.854301E-01 -1.496581E-01  4.032304E+01

 displacements (vx,vy,vz) for set SENSOR and time  0.5312500E-02

      7572 -4.937165E-01 -1.910947E-01  4.208637E+01

 displacements (vx,vy,vz) for set SENSOR and time  0.5351562E-02

      7572 -4.911831E-01 -2.796158E-01  4.336424E+01

 displacements (vx,vy,vz) for set SENSOR and time  0.5390625E-02

      7572 -4.586985E-01 -3.908114E-01  4.403354E+01

 displacements (vx,vy,vz) for set SENSOR and time  0.5429687E-02

      7572 -4.188397E-01 -4.978781E-01  4.429730E+01

 displacements (vx,vy,vz) for set SENSOR and time  0.5468750E-02

      7572 -4.056812E-01 -5.892324E-01  4.446035E+01

 displacements (vx,vy,vz) for set SENSOR and time  0.5507812E-02

      7572 -4.264545E-01 -6.613125E-01  4.457659E+01

 displacements (vx,vy,vz) for set SENSOR and time  0.5546875E-02

      7572 -4.711671E-01 -7.095478E-01  4.453320E+01

 displacements (vx,vy,vz) for set SENSOR and time  0.5585937E-02

      7572 -5.389027E-01 -7.376380E-01  4.437764E+01

 displacements (vx,vy,vz) for set SENSOR and time  0.5625000E-02

      7572 -6.259898E-01 -7.639554E-01  4.430900E+01

 displacements (vx,vy,vz) for set SENSOR and time  0.5664062E-02

      7572 -6.969653E-01 -8.015166E-01  4.436848E+01

 displacements (vx,vy,vz) for set SENSOR and time  0.5703125E-02

      7572 -7.001167E-01 -8.370296E-01  4.436323E+01

 displacements (vx,vy,vz) for set SENSOR and time  0.5742187E-02

      7572 -6.229485E-01 -8.498005E-01  4.413755E+01

 displacements (vx,vy,vz) for set SENSOR and time  0.5781250E-02

      7572 -5.152188E-01 -8.518119E-01  4.375776E+01

 displacements (vx,vy,vz) for set SENSOR and time  0.5820312E-02

      7572 -4.451938E-01 -8.851245E-01  4.337567E+01

 displacements (vx,vy,vz) for set SENSOR and time  0.5859375E-02

      7572 -4.406088E-01 -9.673008E-01  4.303448E+01

 displacements (vx,vy,vz) for set SENSOR and time  0.5898437E-02

      7572 -4.779881E-01 -1.059491E+00  4.267816E+01

 displacements (vx,vy,vz) for set SENSOR and time  0.5937500E-02

      7572 -5.184159E-01 -1.111221E+00  4.227765E+01

 displacements (vx,vy,vz) for set SENSOR and time  0.5976562E-02

      7572 -5.413463E-01 -1.127163E+00  4.189124E+01

 displacements (vx,vy,vz) for set SENSOR and time  0.6015625E-02

      7572 -5.480690E-01 -1.163353E+00  4.162921E+01

 displacements (vx,vy,vz) for set SENSOR and time  0.6054687E-02

      7572 -5.471243E-01 -1.255933E+00  4.156110E+01

 displacements (vx,vy,vz) for set SENSOR and time  0.6093750E-02

      7572 -5.444037E-01 -1.377770E+00  4.160852E+01

 displacements (vx,vy,vz) for set SENSOR and time  0.6132812E-02

      7572 -5.442553E-01 -1.474174E+00  4.153742E+01

 displacements (vx,vy,vz) for set SENSOR and time  0.6171875E-02

      7572 -5.521800E-01 -1.518829E+00  4.112387E+01

 displacements (vx,vy,vz) for set SENSOR and time  0.6210937E-02

      7572 -5.689855E-01 -1.516301E+00  4.033842E+01

 displacements (vx,vy,vz) for set SENSOR and time  0.6250000E-02

      7572 -5.798673E-01 -1.467109E+00  3.932796E+01

 displacements (vx,vy,vz) for set SENSOR and time  0.6289062E-02

      7572 -5.557634E-01 -1.361666E+00  3.824541E+01

 displacements (vx,vy,vz) for set SENSOR and time  0.6328125E-02

      7572 -4.763643E-01 -1.212149E+00  3.716692E+01

 displacements (vx,vy,vz) for set SENSOR and time  0.6367187E-02

      7572 -3.550426E-01 -1.065751E+00  3.613806E+01

 displacements (vx,vy,vz) for set SENSOR and time  0.6406250E-02

      7572 -2.338189E-01 -9.692032E-01  3.518456E+01

 displacements (vx,vy,vz) for set SENSOR and time  0.6445312E-02

      7572 -1.478350E-01 -9.256023E-01  3.427377E+01

 displacements (vx,vy,vz) for set SENSOR and time  0.6484375E-02

      7572 -9.829852E-02 -8.949485E-01  3.338086E+01

 displacements (vx,vy,vz) for set SENSOR and time  0.6523437E-02

      7572 -6.410445E-02 -8.342055E-01  3.261398E+01

 displacements (vx,vy,vz) for set SENSOR and time  0.6562500E-02

      7572 -3.301570E-02 -7.333847E-01  3.215596E+01

 displacements (vx,vy,vz) for set SENSOR and time  0.6601562E-02

      7572 -1.075960E-02 -6.200546E-01  3.204204E+01

 displacements (vx,vy,vz) for set SENSOR and time  0.6640625E-02

      7572 -8.215547E-04 -5.374033E-01  3.211578E+01

 displacements (vx,vy,vz) for set SENSOR and time  0.6679687E-02

      7572  1.159253E-02 -5.145961E-01  3.226709E+01

 displacements (vx,vy,vz) for set SENSOR and time  0.6718750E-02

      7572  4.703141E-02 -5.487035E-01  3.259205E+01

 displacements (vx,vy,vz) for set SENSOR and time  0.6757812E-02

      7572  1.077660E-01 -6.118853E-01  3.321939E+01

 displacements (vx,vy,vz) for set SENSOR and time  0.6796875E-02

      7572  1.739044E-01 -6.775645E-01  3.407398E+01

 displacements (vx,vy,vz) for set SENSOR and time  0.6835937E-02

      7572  2.232002E-01 -7.382056E-01  3.491400E+01

 displacements (vx,vy,vz) for set SENSOR and time  0.6875000E-02

      7572  2.490573E-01 -7.970803E-01  3.550880E+01

 displacements (vx,vy,vz) for set SENSOR and time  0.6914062E-02

      7572  2.573794E-01 -8.510380E-01  3.566691E+01

 displacements (vx,vy,vz) for set SENSOR and time  0.6953125E-02

      7572  2.510829E-01 -8.917427E-01  3.521331E+01

 displacements (vx,vy,vz) for set SENSOR and time  0.6992187E-02

      7572  2.243524E-01 -9.217172E-01  3.416150E+01

 displacements (vx,vy,vz) for set SENSOR and time  0.7031250E-02

      7572  1.736264E-01 -9.565600E-01  3.289799E+01

 displacements (vx,vy,vz) for set SENSOR and time  0.7070312E-02

      7572  1.097955E-01 -1.005676E+00  3.199417E+01

 displacements (vx,vy,vz) for set SENSOR and time  0.7109375E-02

      7572  5.385810E-02 -1.058130E+00  3.177247E+01

 displacements (vx,vy,vz) for set SENSOR and time  0.7148437E-02

      7572  1.906328E-02 -1.094110E+00  3.217609E+01

 displacements (vx,vy,vz) for set SENSOR and time  0.7187500E-02

      7572  7.671833E-04 -1.105973E+00  3.305941E+01

 displacements (vx,vy,vz) for set SENSOR and time  0.7226562E-02

      7572 -1.326268E-02 -1.101584E+00  3.439514E+01

 displacements (vx,vy,vz) for set SENSOR and time  0.7265625E-02

      7572 -2.537379E-02 -1.090030E+00  3.609891E+01

 displacements (vx,vy,vz) for set SENSOR and time  0.7304687E-02

      7572 -2.646894E-02 -1.071956E+00  3.784489E+01

 displacements (vx,vy,vz) for set SENSOR and time  0.7343750E-02

      7572 -1.280899E-02 -1.044738E+00  3.925701E+01

 displacements (vx,vy,vz) for set SENSOR and time  0.7382812E-02

      7572  1.057981E-03 -1.011281E+00  4.022184E+01

 displacements (vx,vy,vz) for set SENSOR and time  0.7421875E-02

      7572 -8.357331E-03 -9.810368E-01  4.086854E+01

 displacements (vx,vy,vz) for set SENSOR and time  0.7460938E-02

      7572 -5.081746E-02 -9.647661E-01  4.129874E+01

 displacements (vx,vy,vz) for set SENSOR and time  0.7500000E-02

      7572 -1.114554E-01 -9.684887E-01  4.149579E+01

 displacements (vx,vy,vz) for set SENSOR and time  0.7539063E-02

      7572 -1.631589E-01 -9.885096E-01  4.147072E+01

 displacements (vx,vy,vz) for set SENSOR and time  0.7578125E-02

      7572 -1.885201E-01 -1.010651E+00  4.131706E+01

 displacements (vx,vy,vz) for set SENSOR and time  0.7617188E-02

      7572 -1.890310E-01 -1.017863E+00  4.107939E+01

 displacements (vx,vy,vz) for set SENSOR and time  0.7656250E-02

      7572 -1.741119E-01 -1.001955E+00  4.070666E+01

 displacements (vx,vy,vz) for set SENSOR and time  0.7695313E-02

      7572 -1.440131E-01 -9.679473E-01  4.020201E+01

 displacements (vx,vy,vz) for set SENSOR and time  0.7734375E-02

      7572 -8.696073E-02 -9.277825E-01  3.971450E+01

 displacements (vx,vy,vz) for set SENSOR and time  0.7773438E-02

      7572  4.903423E-03 -8.930769E-01  3.940513E+01

 displacements (vx,vy,vz) for set SENSOR and time  0.7812500E-02

      7572  1.186558E-01 -8.734364E-01  3.929695E+01

 displacements (vx,vy,vz) for set SENSOR and time  0.7851563E-02

      7572  2.240459E-01 -8.740178E-01  3.933739E+01

 displacements (vx,vy,vz) for set SENSOR and time  0.7890625E-02

      7572  2.962904E-01 -8.879036E-01  3.955526E+01

 displacements (vx,vy,vz) for set SENSOR and time  0.7929688E-02

      7572  3.346114E-01 -8.942740E-01  4.006824E+01

 displacements (vx,vy,vz) for set SENSOR and time  0.7968750E-02

      7572  3.580119E-01 -8.733292E-01  4.094511E+01

 displacements (vx,vy,vz) for set SENSOR and time  0.8007813E-02

      7572  3.856785E-01 -8.260561E-01  4.211380E+01

 displacements (vx,vy,vz) for set SENSOR and time  0.8046875E-02

      7572  4.230016E-01 -7.742906E-01  4.339905E+01

 displacements (vx,vy,vz) for set SENSOR and time  0.8085938E-02

      7572  4.621187E-01 -7.382057E-01  4.462447E+01

 displacements (vx,vy,vz) for set SENSOR and time  0.8125000E-02

      7572  4.896809E-01 -7.176903E-01  4.570716E+01

 displacements (vx,vy,vz) for set SENSOR and time  0.8164063E-02

      7572  4.943676E-01 -6.992874E-01  4.668813E+01

 displacements (vx,vy,vz) for set SENSOR and time  0.8203125E-02

      7572  4.735438E-01 -6.767916E-01  4.764413E+01

 displacements (vx,vy,vz) for set SENSOR and time  0.8242188E-02

      7572  4.367760E-01 -6.575362E-01  4.854453E+01

 displacements (vx,vy,vz) for set SENSOR and time  0.8281250E-02

      7572  4.004265E-01 -6.486413E-01  4.924558E+01

 displacements (vx,vy,vz) for set SENSOR and time  0.8320313E-02

      7572  3.756925E-01 -6.451261E-01  4.967797E+01

 displacements (vx,vy,vz) for set SENSOR and time  0.8359375E-02

      7572  3.629718E-01 -6.370462E-01  4.999223E+01

 displacements (vx,vy,vz) for set SENSOR and time  0.8398438E-02

      7572  3.590951E-01 -6.250887E-01  5.043915E+01

 displacements (vx,vy,vz) for set SENSOR and time  0.8437500E-02

      7572  3.666273E-01 -6.227887E-01  5.112183E+01

 displacements (vx,vy,vz) for set SENSOR and time  0.8476563E-02

      7572  3.917347E-01 -6.422643E-01  5.192898E+01

 displacements (vx,vy,vz) for set SENSOR and time  0.8515625E-02

      7572  4.337492E-01 -6.817856E-01  5.268282E+01

 displacements (vx,vy,vz) for set SENSOR and time  0.8554688E-02

      7572  4.809253E-01 -7.297725E-01  5.325822E+01

 displacements (vx,vy,vz) for set SENSOR and time  0.8593750E-02

      7572  5.175585E-01 -7.783069E-01  5.356501E+01

 displacements (vx,vy,vz) for set SENSOR and time  0.8632813E-02

      7572  5.337231E-01 -8.286420E-01  5.353896E+01

 displacements (vx,vy,vz) for set SENSOR and time  0.8671875E-02

      7572  5.296075E-01 -8.832438E-01  5.321686E+01

 displacements (vx,vy,vz) for set SENSOR and time  0.8710938E-02

      7572  5.150813E-01 -9.363375E-01  5.275327E+01

 displacements (vx,vy,vz) for set SENSOR and time  0.8750000E-02

      7572  5.058887E-01 -9.759597E-01  5.230585E+01

 displacements (vx,vy,vz) for set SENSOR and time  0.8789063E-02

      7572  5.143972E-01 -9.953912E-01  5.195302E+01

 displacements (vx,vy,vz) for set SENSOR and time  0.8828125E-02

      7572  5.382991E-01 -1.000127E+00  5.176109E+01

 displacements (vx,vy,vz) for set SENSOR and time  0.8867188E-02

      7572  5.593724E-01 -1.002060E+00  5.184391E+01

 displacements (vx,vy,vz) for set SENSOR and time  0.8906250E-02

      7572  5.583210E-01 -1.007513E+00  5.224798E+01

 displacements (vx,vy,vz) for set SENSOR and time  0.8945313E-02

      7572  5.330104E-01 -1.011938E+00  5.280327E+01

 displacements (vx,vy,vz) for set SENSOR and time  0.8984375E-02

      7572  5.007897E-01 -1.005324E+00  5.319219E+01

 displacements (vx,vy,vz) for set SENSOR and time  0.9023438E-02

      7572  4.825217E-01 -9.808743E-01  5.319845E+01

 displacements (vx,vy,vz) for set SENSOR and time  0.9062500E-02

      7572  4.860162E-01 -9.386219E-01  5.285319E+01

 displacements (vx,vy,vz) for set SENSOR and time  0.9101563E-02

      7572  5.050482E-01 -8.836966E-01  5.235565E+01

 displacements (vx,vy,vz) for set SENSOR and time  0.9140625E-02

      7572  5.308222E-01 -8.238601E-01  5.191940E+01

 displacements (vx,vy,vz) for set SENSOR and time  0.9179688E-02

      7572  5.602775E-01 -7.679597E-01  5.168766E+01

 displacements (vx,vy,vz) for set SENSOR and time  0.9218750E-02

      7572  5.927980E-01 -7.234821E-01  5.169530E+01

 displacements (vx,vy,vz) for set SENSOR and time  0.9257813E-02

      7572  6.220452E-01 -6.936100E-01  5.185205E+01

 displacements (vx,vy,vz) for set SENSOR and time  0.9296875E-02

      7572  6.346957E-01 -6.773831E-01  5.200867E+01

 displacements (vx,vy,vz) for set SENSOR and time  0.9335938E-02

      7572  6.188619E-01 -6.737060E-01  5.209256E+01

 displacements (vx,vy,vz) for set SENSOR and time  0.9375000E-02

      7572  5.733091E-01 -6.842693E-01  5.215830E+01

 displacements (vx,vy,vz) for set SENSOR and time  0.9414063E-02

      7572  5.073137E-01 -7.111424E-01  5.227768E+01

 displacements (vx,vy,vz) for set SENSOR and time  0.9453125E-02

      7572  4.314554E-01 -7.520400E-01  5.241453E+01

 displacements (vx,vy,vz) for set SENSOR and time  0.9492188E-02

      7572  3.498443E-01 -7.996555E-01  5.244465E+01

 displacements (vx,vy,vz) for set SENSOR and time  0.9531250E-02

      7572  2.620021E-01 -8.456367E-01  5.226826E+01

 displacements (vx,vy,vz) for set SENSOR and time  0.9570313E-02

      7572  1.704692E-01 -8.833276E-01  5.186040E+01

 displacements (vx,vy,vz) for set SENSOR and time  0.9609375E-02

      7572  8.361787E-02 -9.062071E-01  5.124079E+01

 displacements (vx,vy,vz) for set SENSOR and time  0.9648438E-02

      7572  1.047071E-02 -9.067940E-01  5.045655E+01

 displacements (vx,vy,vz) for set SENSOR and time  0.9687500E-02

      7572 -4.494814E-02 -8.811800E-01  4.959529E+01

 displacements (vx,vy,vz) for set SENSOR and time  0.9726563E-02

      7572 -8.285676E-02 -8.356276E-01  4.876790E+01

 displacements (vx,vy,vz) for set SENSOR and time  0.9765625E-02

      7572 -1.037818E-01 -7.862694E-01  4.806998E+01