
 displacements (vx,vy,vz) for set SENSOR and time  0.3906250E-04

      7572  2.773740E-02  3.537506E-02 -6.840568E-02

 displacements (vx,vy,vz) for set SENSOR and time  0.7812500E-04

      7572  6.408997E-02  8.082503E-02 -2.636000E-01

 displacements (vx,vy,vz) for set SENSOR and time  0.1171875E-03

      7572 -8.562275E-02 -1.043440E-01  6.047612E-02

 displacements (vx,vy,vz) for set SENSOR and time  0.1562500E-03

      7572 -7.295812E-02 -7.855064E-02  7.786468E-01

 displacements (vx,vy,vz) for set SENSOR and time  0.1953125E-03

      7572  2.079213E-01  2.302436E-01  6.017435E-01

 displacements (vx,vy,vz) for set SENSOR and time  0.2343750E-03

      7572  3.467064E-01  3.249691E-01 -1.279958E+00

 displacements (vx,vy,vz) for set SENSOR and time  0.2734375E-03

      7572  2.020046E-01  1.959885E-01 -3.552976E+00

 displacements (vx,vy,vz) for set SENSOR and time  0.3125000E-03

      7572 -3.116391E-02  3.458116E-02 -4.288930E+00

 displacements (vx,vy,vz) for set SENSOR and time  0.3515625E-03

      7572 -2.252698E-01 -2.658727E-01 -3.407787E+00

 displacements (vx,vy,vz) for set SENSOR and time  0.3906250E-03

      7572 -3.293162E-01 -4.850779E-01 -2.004538E+00

 displacements (vx,vy,vz) for set SENSOR and time  0.4296875E-03

      7572 -3.591770E-01 -2.960631E-01 -5.435555E-01

 displacements (vx,vy,vz) for set SENSOR and time  0.4687500E-03

      7572 -3.701136E-01 -9.583505E-02  5.953479E-01

 displacements (vx,vy,vz) for set SENSOR and time  0.5078125E-03

      7572 -3.579688E-01 -2.973731E-01  7.471151E-01

 displacements (vx,vy,vz) for set SENSOR and time  0.5468750E-03

      7572 -3.743960E-01 -5.359959E-01  5.500531E-01

 displacements (vx,vy,vz) for set SENSOR and time  0.5859375E-03

      7572 -4.599700E-01 -5.040681E-01  1.430718E+00

 displacements (vx,vy,vz) for set SENSOR and time  0.6250000E-03

      7572 -4.946229E-01 -4.678281E-01  3.237783E+00

 displacements (vx,vy,vz) for set SENSOR and time  0.6640625E-03

      7572 -4.871229E-01 -5.514621E-01  5.165870E+00

 displacements (vx,vy,vz) for set SENSOR and time  0.7031250E-03

      7572 -5.449170E-01 -5.652861E-01  7.445744E+00

 displacements (vx,vy,vz) for set SENSOR and time  0.7421875E-03

      7572 -5.009763E-01 -5.279682E-01  9.630472E+00

 displacements (vx,vy,vz) for set SENSOR and time  0.7812500E-03

      7572 -3.245291E-01 -6.112112E-01  1.048674E+01

 displacements (vx,vy,vz) for set SENSOR and time  0.8203125E-03

      7572 -3.476419E-01 -7.503146E-01  1.059678E+01

 displacements (vx,vy,vz) for set SENSOR and time  0.8593750E-03

      7572 -4.802975E-01 -7.169855E-01  1.108222E+01

 displacements (vx,vy,vz) for set SENSOR and time  0.8984375E-03

      7572 -3.315251E-01 -4.862798E-01  1.123651E+01

 displacements (vx,vy,vz) for set SENSOR and time  0.9375000E-03

      7572 -1.371556E-01 -3.082804E-01  1.079444E+01

 displacements (vx,vy,vz) for set SENSOR and time  0.9765625E-03

      7572 -2.526720E-01 -2.959671E-01  1.095092E+01

 displacements (vx,vy,vz) for set SENSOR and time  0.1015625E-02

      7572 -3.963604E-01 -2.306933E-01  1.174357E+01

 displacements (vx,vy,vz) for set SENSOR and time  0.1054688E-02

      7572 -3.456988E-01 -5.873468E-02  1.239960E+01

 displacements (vx,vy,vz) for set SENSOR and time  0.1093750E-02

      7572 -2.896255E-01 -4.210855E-02  1.296432E+01

 displacements (vx,vy,vz) for set SENSOR and time  0.1132813E-02

      7572 -2.662860E-01 -1.533488E-01  1.312499E+01

 displacements (vx,vy,vz) for set SENSOR and time  0.1171875E-02

      7572 -2.431273E-01 -1.086926E-01  1.255611E+01

 displacements (vx,vy,vz) for set SENSOR and time  0.1210938E-02

      7572 -3.068227E-01 -1.018751E-02  1.228483E+01

 displacements (vx,vy,vz) for set SENSOR and time  0.1250000E-02

      7572 -3.592150E-01 -7.483422E-02  1.289289E+01

 displacements (vx,vy,vz) for set SENSOR and time  0.1289063E-02

      7572 -3.198284E-01 -1.049315E-01  1.381352E+01

 displacements (vx,vy,vz) for set SENSOR and time  0.1328125E-02

      7572 -3.312081E-01  4.003434E-02  1.489275E+01

 displacements (vx,vy,vz) for set SENSOR and time  0.1367188E-02

      7572 -3.313070E-01  1.364637E-01  1.555319E+01

 displacements (vx,vy,vz) for set SENSOR and time  0.1406250E-02

      7572 -1.646786E-01  1.151798E-01  1.481488E+01

 displacements (vx,vy,vz) for set SENSOR and time  0.1445313E-02

      7572 -2.758516E-02  1.065128E-01  1.370891E+01

 displacements (vx,vy,vz) for set SENSOR and time  0.1484375E-02

      7572 -1.088967E-01  6.549224E-02  1.368596E+01

 displacements (vx,vy,vz) for set SENSOR and time  0.1523438E-02

      7572 -2.745936E-01 -4.595996E-02  1.409136E+01

 displacements (vx,vy,vz) for set SENSOR and time  0.1562500E-02

      7572 -3.776961E-01 -1.090929E-01  1.457231E+01

 displacements (vx,vy,vz) for set SENSOR and time  0.1601563E-02

      7572 -3.892663E-01 -1.096409E-01  1.577817E+01

 displacements (vx,vy,vz) for set SENSOR and time  0.1640625E-02

      7572 -3.768596E-01 -1.048391E-01  1.672838E+01

 displacements (vx,vy,vz) for set SENSOR and time  0.1679688E-02

      7572 -4.625295E-01 -9.033404E-02  1.644861E+01

 displacements (vx,vy,vz) for set SENSOR and time  0.1718750E-02

      7572 -5.407851E-01 -1.292487E-01  1.624058E+01

 displacements (vx,vy,vz) for set SENSOR and time  0.1757813E-02

      7572 -4.167894E-01 -2.455596E-01  1.690559E+01

 displacements (vx,vy,vz) for set SENSOR and time  0.1796875E-02

      7572 -2.286203E-01 -2.986644E-01  1.757485E+01

 displacements (vx,vy,vz) for set SENSOR and time  0.1835937E-02

      7572 -1.427332E-01 -2.728065E-01  1.806111E+01

 displacements (vx,vy,vz) for set SENSOR and time  0.1875000E-02

      7572 -5.492060E-02 -3.005853E-01  1.861794E+01

 displacements (vx,vy,vz) for set SENSOR and time  0.1914062E-02

      7572  2.474735E-02 -3.491527E-01  1.874851E+01

 displacements (vx,vy,vz) for set SENSOR and time  0.1953125E-02

      7572 -2.277717E-02 -3.518752E-01  1.828681E+01

 displacements (vx,vy,vz) for set SENSOR and time  0.1992187E-02

      7572 -1.142002E-01 -4.054699E-01  1.768162E+01

 displacements (vx,vy,vz) for set SENSOR and time  0.2031250E-02

      7572 -1.897185E-01 -5.169217E-01  1.710747E+01

 displacements (vx,vy,vz) for set SENSOR and time  0.2070312E-02

      7572 -2.656084E-01 -5.679926E-01  1.641443E+01

 displacements (vx,vy,vz) for set SENSOR and time  0.2109375E-02

      7572 -2.193945E-01 -5.662664E-01  1.535556E+01

 displacements (vx,vy,vz) for set SENSOR and time  0.2148437E-02

      7572 -7.714202E-02 -5.500552E-01  1.415747E+01

 displacements (vx,vy,vz) for set SENSOR and time  0.2187500E-02

      7572 -5.394445E-02 -4.747046E-01  1.367978E+01

 displacements (vx,vy,vz) for set SENSOR and time  0.2226562E-02

      7572 -8.794479E-02 -3.926671E-01  1.396947E+01

 displacements (vx,vy,vz) for set SENSOR and time  0.2265625E-02

      7572 -2.342764E-02 -3.987400E-01  1.419119E+01

 displacements (vx,vy,vz) for set SENSOR and time  0.2304687E-02

      7572  2.209221E-02 -4.261607E-01  1.431523E+01

 displacements (vx,vy,vz) for set SENSOR and time  0.2343750E-02

      7572  9.705332E-04 -3.963987E-01  1.451911E+01

 displacements (vx,vy,vz) for set SENSOR and time  0.2382812E-02

      7572  3.825579E-02 -3.759552E-01  1.421774E+01

 displacements (vx,vy,vz) for set SENSOR and time  0.2421875E-02

      7572  8.820650E-02 -4.225819E-01  1.356383E+01

 displacements (vx,vy,vz) for set SENSOR and time  0.2460937E-02

      7572  5.844474E-02 -5.068441E-01  1.334234E+01

 displacements (vx,vy,vz) for set SENSOR and time  0.2500000E-02

      7572 -5.093930E-03 -5.998928E-01  1.321541E+01

 displacements (vx,vy,vz) for set SENSOR and time  0.2539062E-02

      7572 -8.538720E-02 -6.699165E-01  1.269250E+01

 displacements (vx,vy,vz) for set SENSOR and time  0.2578125E-02

      7572 -1.541898E-01 -6.749537E-01  1.218530E+01

 displacements (vx,vy,vz) for set SENSOR and time  0.2617187E-02

      7572 -1.287851E-01 -6.372187E-01  1.175250E+01

 displacements (vx,vy,vz) for set SENSOR and time  0.2656250E-02

      7572 -5.876782E-02 -6.115537E-01  1.116655E+01

 displacements (vx,vy,vz) for set SENSOR and time  0.2695312E-02

      7572 -7.125452E-03 -5.874154E-01  1.072102E+01

 displacements (vx,vy,vz) for set SENSOR and time  0.2734375E-02

      7572  9.567861E-02 -5.434899E-01  1.039775E+01

 displacements (vx,vy,vz) for set SENSOR and time  0.2773437E-02

      7572  2.100501E-01 -5.370721E-01  1.002398E+01

 displacements (vx,vy,vz) for set SENSOR and time  0.2812500E-02

      7572  1.799719E-01 -6.077861E-01  1.013771E+01

 displacements (vx,vy,vz) for set SENSOR and time  0.2851562E-02

      7572  7.793311E-03 -6.858518E-01  1.092537E+01

 displacements (vx,vy,vz) for set SENSOR and time  0.2890625E-02

      7572 -1.677654E-01 -7.161724E-01  1.181322E+01

 displacements (vx,vy,vz) for set SENSOR and time  0.2929687E-02

      7572 -2.104354E-01 -7.375131E-01  1.261696E+01

 displacements (vx,vy,vz) for set SENSOR and time  0.2968750E-02

      7572 -8.020692E-02 -7.551641E-01  1.328241E+01

 displacements (vx,vy,vz) for set SENSOR and time  0.3007812E-02

      7572  5.034069E-02 -7.121734E-01  1.349533E+01

 displacements (vx,vy,vz) for set SENSOR and time  0.3046875E-02

      7572  1.505956E-02 -6.088475E-01  1.348278E+01

 displacements (vx,vy,vz) for set SENSOR and time  0.3085937E-02

      7572 -7.239708E-02 -4.817670E-01  1.359530E+01

 displacements (vx,vy,vz) for set SENSOR and time  0.3125000E-02

      7572 -9.799617E-02 -3.340416E-01  1.373989E+01

 displacements (vx,vy,vz) for set SENSOR and time  0.3164062E-02

      7572 -1.521663E-01 -2.079618E-01  1.426438E+01

 displacements (vx,vy,vz) for set SENSOR and time  0.3203125E-02

      7572 -2.378153E-01 -1.895730E-01  1.552485E+01

 displacements (vx,vy,vz) for set SENSOR and time  0.3242187E-02

      7572 -2.559257E-01 -2.769592E-01  1.675545E+01

 displacements (vx,vy,vz) for set SENSOR and time  0.3281250E-02

      7572 -2.512430E-01 -3.609466E-01  1.725648E+01

 displacements (vx,vy,vz) for set SENSOR and time  0.3320312E-02

      7572 -2.811686E-01 -3.443061E-01  1.730617E+01

 displacements (vx,vy,vz) for set SENSOR and time  0.3359375E-02

      7572 -2.912609E-01 -2.421858E-01  1.701538E+01

 displacements (vx,vy,vz) for set SENSOR and time  0.3398437E-02

      7572 -2.824033E-01 -1.670330E-01  1.624428E+01

 displacements (vx,vy,vz) for set SENSOR and time  0.3437500E-02

      7572 -3.010727E-01 -1.748329E-01  1.546686E+01

 displacements (vx,vy,vz) for set SENSOR and time  0.3476562E-02

      7572 -3.265645E-01 -1.876284E-01  1.531405E+01

 displacements (vx,vy,vz) for set SENSOR and time  0.3515625E-02

      7572 -3.409526E-01 -1.509304E-01  1.602426E+01

 displacements (vx,vy,vz) for set SENSOR and time  0.3554687E-02

      7572 -3.460306E-01 -1.249924E-01  1.749351E+01

 displacements (vx,vy,vz) for set SENSOR and time  0.3593750E-02

      7572 -3.254023E-01 -1.571392E-01  1.906074E+01

 displacements (vx,vy,vz) for set SENSOR and time  0.3632812E-02

      7572 -3.021976E-01 -2.346640E-01  1.994151E+01

 displacements (vx,vy,vz) for set SENSOR and time  0.3671875E-02

      7572 -3.044991E-01 -3.460638E-01  2.012016E+01

 displacements (vx,vy,vz) for set SENSOR and time  0.3710937E-02

      7572 -3.038775E-01 -4.574733E-01  2.003443E+01

 displacements (vx,vy,vz) for set SENSOR and time  0.3750000E-02

      7572 -3.072919E-01 -5.208473E-01  1.989174E+01

 displacements (vx,vy,vz) for set SENSOR and time  0.3789062E-02

      7572 -3.591187E-01 -5.460260E-01  1.976582E+01

 displacements (vx,vy,vz) for set SENSOR and time  0.3828125E-02

      7572 -4.268423E-01 -5.652164E-01  1.967344E+01

 displacements (vx,vy,vz) for set SENSOR and time  0.3867187E-02

      7572 -4.455443E-01 -5.841254E-01  1.954473E+01

 displacements (vx,vy,vz) for set SENSOR and time  0.3906250E-02

      7572 -4.036784E-01 -6.137559E-01  1.938013E+01

 displacements (vx,vy,vz) for set SENSOR and time  0.3945312E-02

      7572 -3.232366E-01 -6.585732E-01  1.915451E+01

 displacements (vx,vy,vz) for set SENSOR and time  0.3984375E-02

      7572 -2.669423E-01 -7.074665E-01  1.882553E+01

 displacements (vx,vy,vz) for set SENSOR and time  0.4023437E-02

      7572 -3.000924E-01 -7.724068E-01  1.855473E+01

 displacements (vx,vy,vz) for set SENSOR and time  0.4062500E-02

      7572 -3.742234E-01 -8.467479E-01  1.842585E+01

 displacements (vx,vy,vz) for set SENSOR and time  0.4101562E-02

      7572 -3.905433E-01 -8.899277E-01  1.826854E+01

 displacements (vx,vy,vz) for set SENSOR and time  0.4140625E-02

      7572 -3.578135E-01 -9.208603E-01  1.806368E+01

 displacements (vx,vy,vz) for set SENSOR and time  0.4179687E-02

      7572 -3.384326E-01 -9.730752E-01  1.786018E+01

 displacements (vx,vy,vz) for set SENSOR and time  0.4218750E-02

      7572 -3.310625E-01 -9.788734E-01  1.743452E+01

 displacements (vx,vy,vz) for set SENSOR and time  0.4257812E-02

      7572 -3.047442E-01 -8.786218E-01  1.668356E+01

 displacements (vx,vy,vz) for set SENSOR and time  0.4296875E-02

      7572 -2.442132E-01 -7.315596E-01  1.587236E+01

 displacements (vx,vy,vz) for set SENSOR and time  0.4335937E-02

      7572 -1.427355E-01 -6.033629E-01  1.521172E+01

 displacements (vx,vy,vz) for set SENSOR and time  0.4375000E-02

      7572 -2.980365E-02 -5.095353E-01  1.471834E+01

 displacements (vx,vy,vz) for set SENSOR and time  0.4414062E-02

      7572  3.434227E-02 -4.674662E-01  1.438081E+01

 displacements (vx,vy,vz) for set SENSOR and time  0.4453125E-02

      7572  3.768360E-02 -4.514781E-01  1.418557E+01

 displacements (vx,vy,vz) for set SENSOR and time  0.4492187E-02

      7572  3.161475E-02 -4.006765E-01  1.419670E+01

 displacements (vx,vy,vz) for set SENSOR and time  0.4531250E-02

      7572  5.223959E-02 -3.476904E-01  1.448801E+01

 displacements (vx,vy,vz) for set SENSOR and time  0.4570312E-02

      7572  8.744126E-02 -3.801964E-01  1.492482E+01

 displacements (vx,vy,vz) for set SENSOR and time  0.4609375E-02

      7572  1.237309E-01 -4.837065E-01  1.533385E+01

 displacements (vx,vy,vz) for set SENSOR and time  0.4648437E-02

      7572  1.606110E-01 -5.737064E-01  1.567336E+01

 displacements (vx,vy,vz) for set SENSOR and time  0.4687500E-02

      7572  1.767870E-01 -6.221167E-01  1.580708E+01

 displacements (vx,vy,vz) for set SENSOR and time  0.4726562E-02

      7572  1.475037E-01 -6.518218E-01  1.554553E+01

 displacements (vx,vy,vz) for set SENSOR and time  0.4765625E-02

      7572  8.993919E-02 -6.778055E-01  1.498863E+01

 displacements (vx,vy,vz) for set SENSOR and time  0.4804687E-02

      7572  3.668800E-02 -7.031208E-01  1.454419E+01

 displacements (vx,vy,vz) for set SENSOR and time  0.4843750E-02

      7572 -5.038062E-03 -7.265082E-01  1.467421E+01

 displacements (vx,vy,vz) for set SENSOR and time  0.4882812E-02

      7572 -3.034306E-02 -7.376143E-01  1.553200E+01

 displacements (vx,vy,vz) for set SENSOR and time  0.4921875E-02

      7572 -2.946856E-02 -7.243200E-01  1.673576E+01

 displacements (vx,vy,vz) for set SENSOR and time  0.4960937E-02

      7572 -1.948554E-02 -6.914418E-01  1.777442E+01

 displacements (vx,vy,vz) for set SENSOR and time  0.5000000E-02

      7572 -2.444764E-02 -6.609560E-01  1.847644E+01

 displacements (vx,vy,vz) for set SENSOR and time  0.5039062E-02

      7572 -3.959523E-02 -6.446795E-01  1.881141E+01

 displacements (vx,vy,vz) for set SENSOR and time  0.5078125E-02

      7572 -5.797134E-02 -6.361528E-01  1.875611E+01

 displacements (vx,vy,vz) for set SENSOR and time  0.5117187E-02

      7572 -8.517068E-02 -6.348548E-01  1.851502E+01

 displacements (vx,vy,vz) for set SENSOR and time  0.5156250E-02

      7572 -1.015642E-01 -6.429304E-01  1.830905E+01

 displacements (vx,vy,vz) for set SENSOR and time  0.5195312E-02

      7572 -7.011836E-02 -6.420904E-01  1.809189E+01

 displacements (vx,vy,vz) for set SENSOR and time  0.5234375E-02

      7572  7.726435E-03 -6.153543E-01  1.783910E+01

 displacements (vx,vy,vz) for set SENSOR and time  0.5273437E-02

      7572  9.827600E-02 -5.778796E-01  1.771265E+01

 displacements (vx,vy,vz) for set SENSOR and time  0.5312500E-02

      7572  1.866500E-01 -5.558386E-01  1.782945E+01

 displacements (vx,vy,vz) for set SENSOR and time  0.5351562E-02

      7572  2.685192E-01 -5.540935E-01  1.822085E+01

 displacements (vx,vy,vz) for set SENSOR and time  0.5390625E-02

      7572  3.170639E-01 -5.561475E-01  1.887373E+01

 displacements (vx,vy,vz) for set SENSOR and time  0.5429687E-02

      7572  3.176474E-01 -5.393101E-01  1.967820E+01

 displacements (vx,vy,vz) for set SENSOR and time  0.5468750E-02

      7572  3.063581E-01 -4.956103E-01  2.052956E+01

 displacements (vx,vy,vz) for set SENSOR and time  0.5507812E-02

      7572  3.178839E-01 -4.474627E-01  2.134915E+01

 displacements (vx,vy,vz) for set SENSOR and time  0.5546875E-02

      7572  3.304177E-01 -4.263563E-01  2.197890E+01

 displacements (vx,vy,vz) for set SENSOR and time  0.5585937E-02

      7572  3.101526E-01 -4.323727E-01  2.236878E+01

 displacements (vx,vy,vz) for set SENSOR and time  0.5625000E-02

      7572  2.699186E-01 -4.386239E-01  2.268994E+01

 displacements (vx,vy,vz) for set SENSOR and time  0.5664062E-02

      7572  2.466448E-01 -4.367877E-01  2.301657E+01

 displacements (vx,vy,vz) for set SENSOR and time  0.5703125E-02

      7572  2.548388E-01 -4.449225E-01  2.326207E+01

 displacements (vx,vy,vz) for set SENSOR and time  0.5742187E-02

      7572  2.835545E-01 -4.702291E-01  2.347922E+01

 displacements (vx,vy,vz) for set SENSOR and time  0.5781250E-02

      7572  3.174771E-01 -5.057039E-01  2.377092E+01

 displacements (vx,vy,vz) for set SENSOR and time  0.5820312E-02

      7572  3.483166E-01 -5.551226E-01  2.399404E+01

 displacements (vx,vy,vz) for set SENSOR and time  0.5859375E-02

      7572  3.689854E-01 -6.160073E-01  2.392183E+01

 displacements (vx,vy,vz) for set SENSOR and time  0.5898437E-02

      7572  3.689736E-01 -6.622197E-01  2.357653E+01

 displacements (vx,vy,vz) for set SENSOR and time  0.5937500E-02

      7572  3.502626E-01 -6.804475E-01  2.320919E+01

 displacements (vx,vy,vz) for set SENSOR and time  0.5976562E-02

      7572  3.358076E-01 -6.832938E-01  2.304731E+01

 displacements (vx,vy,vz) for set SENSOR and time  0.6015625E-02

      7572  3.421455E-01 -6.734293E-01  2.313032E+01

 displacements (vx,vy,vz) for set SENSOR and time  0.6054687E-02

      7572  3.555177E-01 -6.465786E-01  2.334435E+01

 displacements (vx,vy,vz) for set SENSOR and time  0.6093750E-02

      7572  3.521434E-01 -6.155271E-01  2.353698E+01

 displacements (vx,vy,vz) for set SENSOR and time  0.6132812E-02

      7572  3.344011E-01 -5.854810E-01  2.356204E+01

 displacements (vx,vy,vz) for set SENSOR and time  0.6171875E-02

      7572  3.311374E-01 -5.419209E-01  2.334575E+01

 displacements (vx,vy,vz) for set SENSOR and time  0.6210937E-02

      7572  3.559076E-01 -4.881899E-01  2.301917E+01

 displacements (vx,vy,vz) for set SENSOR and time  0.6250000E-02

      7572  3.814108E-01 -4.508099E-01  2.285970E+01

 displacements (vx,vy,vz) for set SENSOR and time  0.6289062E-02

      7572  3.746100E-01 -4.437427E-01  2.299451E+01

 displacements (vx,vy,vz) for set SENSOR and time  0.6328125E-02

      7572  3.340254E-01 -4.607833E-01  2.324762E+01

 displacements (vx,vy,vz) for set SENSOR and time  0.6367187E-02

      7572  2.691555E-01 -4.913725E-01  2.334993E+01

 displacements (vx,vy,vz) for set SENSOR and time  0.6406250E-02

      7572  1.803981E-01 -5.271421E-01  2.322973E+01

 displacements (vx,vy,vz) for set SENSOR and time  0.6445312E-02

      7572  8.218703E-02 -5.628686E-01  2.300094E+01

 displacements (vx,vy,vz) for set SENSOR and time  0.6484375E-02

      7572  2.852997E-03 -5.907515E-01  2.271575E+01

 displacements (vx,vy,vz) for set SENSOR and time  0.6523437E-02

      7572 -5.094150E-02 -5.968904E-01  2.230442E+01

 displacements (vx,vy,vz) for set SENSOR and time  0.6562500E-02

      7572 -9.057118E-02 -5.756123E-01  2.178001E+01

 displacements (vx,vy,vz) for set SENSOR and time  0.6601562E-02

      7572 -1.134928E-01 -5.379408E-01  2.132819E+01

 displacements (vx,vy,vz) for set SENSOR and time  0.6640625E-02

      7572 -1.119261E-01 -5.010571E-01  2.114251E+01

 displacements (vx,vy,vz) for set SENSOR and time  0.6679687E-02

      7572 -9.767194E-02 -4.827383E-01  2.127466E+01

 displacements (vx,vy,vz) for set SENSOR and time  0.6718750E-02

      7572 -8.964489E-02 -4.964557E-01  2.165241E+01

 displacements (vx,vy,vz) for set SENSOR and time  0.6757812E-02

      7572 -9.266278E-02 -5.365636E-01  2.214889E+01

 displacements (vx,vy,vz) for set SENSOR and time  0.6796875E-02

      7572 -1.021480E-01 -5.833889E-01  2.259665E+01

 displacements (vx,vy,vz) for set SENSOR and time  0.6835937E-02

      7572 -1.110098E-01 -6.300870E-01  2.280894E+01

 displacements (vx,vy,vz) for set SENSOR and time  0.6875000E-02

      7572 -1.080381E-01 -6.859730E-01  2.271011E+01

 displacements (vx,vy,vz) for set SENSOR and time  0.6914062E-02

      7572 -8.864852E-02 -7.510803E-01  2.244486E+01

 displacements (vx,vy,vz) for set SENSOR and time  0.6953125E-02

      7572 -6.478361E-02 -8.058105E-01  2.223622E+01

 displacements (vx,vy,vz) for set SENSOR and time  0.6992187E-02

      7572 -5.124100E-02 -8.326917E-01  2.214164E+01

 displacements (vx,vy,vz) for set SENSOR and time  0.7031250E-02

      7572 -5.576540E-02 -8.375520E-01  2.206338E+01

 displacements (vx,vy,vz) for set SENSOR and time  0.7070312E-02

      7572 -8.809441E-02 -8.387033E-01  2.194709E+01

 displacements (vx,vy,vz) for set SENSOR and time  0.7109375E-02

      7572 -1.504826E-01 -8.420536E-01  2.182184E+01

 displacements (vx,vy,vz) for set SENSOR and time  0.7148437E-02

      7572 -2.164327E-01 -8.396355E-01  2.166455E+01

 displacements (vx,vy,vz) for set SENSOR and time  0.7187500E-02

      7572 -2.525343E-01 -8.260778E-01  2.135931E+01

 displacements (vx,vy,vz) for set SENSOR and time  0.7226562E-02

      7572 -2.594652E-01 -8.043550E-01  2.082739E+01

 displacements (vx,vy,vz) for set SENSOR and time  0.7265625E-02

      7572 -2.619687E-01 -7.811093E-01  2.013224E+01

 displacements (vx,vy,vz) for set SENSOR and time  0.7304687E-02

      7572 -2.691732E-01 -7.618094E-01  1.944274E+01

 displacements (vx,vy,vz) for set SENSOR and time  0.7343750E-02

      7572 -2.693419E-01 -7.438590E-01  1.895145E+01

 displacements (vx,vy,vz) for set SENSOR and time  0.7382812E-02

      7572 -2.510497E-01 -7.148894E-01  1.879590E+01

 displacements (vx,vy,vz) for set SENSOR and time  0.7421875E-02

      7572 -2.131930E-01 -6.646071E-01  1.896225E+01

 displacements (vx,vy,vz) for set SENSOR and time  0.7460938E-02

      7572 -1.628904E-01 -5.973786E-01  1.929926E+01

 displacements (vx,vy,vz) for set SENSOR and time  0.7500000E-02

      7572 -1.115284E-01 -5.302718E-01  1.968053E+01

 displacements (vx,vy,vz) for set SENSOR and time  0.7539063E-02

      7572 -7.029285E-02 -4.788789E-01  2.007212E+01

 displacements (vx,vy,vz) for set SENSOR and time  0.7578125E-02

      7572 -4.611568E-02 -4.450841E-01  2.045230E+01

 displacements (vx,vy,vz) for set SENSOR and time  0.7617188E-02

      7572 -3.765576E-02 -4.199228E-01  2.080720E+01

 displacements (vx,vy,vz) for set SENSOR and time  0.7656250E-02

      7572 -3.479909E-02 -3.973311E-01  2.117630E+01

 displacements (vx,vy,vz) for set SENSOR and time  0.7695313E-02

      7572 -2.720820E-02 -3.796495E-01  2.158644E+01

 displacements (vx,vy,vz) for set SENSOR and time  0.7734375E-02

      7572 -1.372636E-02 -3.700673E-01  2.198931E+01

 displacements (vx,vy,vz) for set SENSOR and time  0.7773438E-02

      7572  3.785328E-04 -3.676339E-01  2.230973E+01

 displacements (vx,vy,vz) for set SENSOR and time  0.7812500E-02

      7572  1.426306E-02 -3.716986E-01  2.250800E+01

 displacements (vx,vy,vz) for set SENSOR and time  0.7851563E-02

      7572  3.450960E-02 -3.833468E-01  2.261650E+01

 displacements (vx,vy,vz) for set SENSOR and time  0.7890625E-02

      7572  6.562082E-02 -3.987805E-01  2.272559E+01

 displacements (vx,vy,vz) for set SENSOR and time  0.7929688E-02

      7572  1.021488E-01 -4.099190E-01  2.287181E+01

 displacements (vx,vy,vz) for set SENSOR and time  0.7968750E-02

      7572  1.330183E-01 -4.164077E-01  2.298321E+01

 displacements (vx,vy,vz) for set SENSOR and time  0.8007813E-02

      7572  1.486587E-01 -4.281069E-01  2.299495E+01

 displacements (vx,vy,vz) for set SENSOR and time  0.8046875E-02

      7572  1.441509E-01 -4.533071E-01  2.292728E+01

 displacements (vx,vy,vz) for set SENSOR and time  0.8085938E-02

      7572  1.246062E-01 -4.932310E-01  2.280860E+01

 displacements (vx,vy,vz) for set SENSOR and time  0.8125000E-02

      7572  1.071652E-01 -5.437011E-01  2.261929E+01

 displacements (vx,vy,vz) for set SENSOR and time  0.8164063E-02

      7572  1.091084E-01 -5.927833E-01  2.233365E+01

 displacements (vx,vy,vz) for set SENSOR and time  0.8203125E-02

      7572  1.335948E-01 -6.257568E-01  2.196954E+01

 displacements (vx,vy,vz) for set SENSOR and time  0.8242188E-02

      7572  1.682564E-01 -6.381119E-01  2.160505E+01

 displacements (vx,vy,vz) for set SENSOR and time  0.8281250E-02

      7572  1.950992E-01 -6.339085E-01  2.134030E+01

 displacements (vx,vy,vz) for set SENSOR and time  0.8320313E-02

      7572  2.047558E-01 -6.156066E-01  2.120688E+01

 displacements (vx,vy,vz) for set SENSOR and time  0.8359375E-02

      7572  2.031104E-01 -5.876294E-01  2.112807E+01

 displacements (vx,vy,vz) for set SENSOR and time  0.8398438E-02

      7572  2.005265E-01 -5.614750E-01  2.098673E+01

 displacements (vx,vy,vz) for set SENSOR and time  0.8437500E-02

      7572  1.991846E-01 -5.480591E-01  2.072635E+01

 displacements (vx,vy,vz) for set SENSOR and time  0.8476563E-02

      7572  1.962087E-01 -5.510546E-01  2.039895E+01

 displacements (vx,vy,vz) for set SENSOR and time  0.8515625E-02

      7572  1.904827E-01 -5.670612E-01  2.011632E+01

 displacements (vx,vy,vz) for set SENSOR and time  0.8554688E-02

      7572  1.810714E-01 -5.871433E-01  1.993401E+01

 displacements (vx,vy,vz) for set SENSOR and time  0.8593750E-02

      7572  1.666123E-01 -6.030710E-01  1.979559E+01

 displacements (vx,vy,vz) for set SENSOR and time  0.8632813E-02

      7572  1.486285E-01 -6.130843E-01  1.960891E+01

 displacements (vx,vy,vz) for set SENSOR and time  0.8671875E-02

      7572  1.315703E-01 -6.183022E-01  1.935246E+01

 displacements (vx,vy,vz) for set SENSOR and time  0.8710938E-02

      7572  1.200746E-01 -6.193285E-01  1.908738E+01

 displacements (vx,vy,vz) for set SENSOR and time  0.8750000E-02

      7572  1.148304E-01 -6.181998E-01  1.889258E+01

 displacements (vx,vy,vz) for set SENSOR and time  0.8789063E-02

      7572  1.088543E-01 -6.169328E-01  1.881925E+01

 displacements (vx,vy,vz) for set SENSOR and time  0.8828125E-02

      7572  9.272061E-02 -6.157148E-01  1.889478E+01

 displacements (vx,vy,vz) for set SENSOR and time  0.8867188E-02

      7572  6.502728E-02 -6.154381E-01  1.912585E+01

 displacements (vx,vy,vz) for set SENSOR and time  0.8906250E-02

      7572  3.124544E-02 -6.170480E-01  1.947881E+01

 displacements (vx,vy,vz) for set SENSOR and time  0.8945313E-02

      7572 -6.515767E-03 -6.202090E-01  1.987939E+01

 displacements (vx,vy,vz) for set SENSOR and time  0.8984375E-02

      7572 -5.005879E-02 -6.273982E-01  2.025438E+01

 displacements (vx,vy,vz) for set SENSOR and time  0.9023438E-02

      7572 -9.607199E-02 -6.428240E-01  2.057882E+01

 displacements (vx,vy,vz) for set SENSOR and time  0.9062500E-02

      7572 -1.332041E-01 -6.650340E-01  2.087566E+01

 displacements (vx,vy,vz) for set SENSOR and time  0.9101563E-02

      7572 -1.487584E-01 -6.897010E-01  2.116621E+01

 displacements (vx,vy,vz) for set SENSOR and time  0.9140625E-02

      7572 -1.371063E-01 -7.184346E-01  2.144781E+01

 displacements (vx,vy,vz) for set SENSOR and time  0.9179688E-02

      7572 -1.040036E-01 -7.539152E-01  2.173385E+01

 displacements (vx,vy,vz) for set SENSOR and time  0.9218750E-02

      7572 -6.358140E-02 -7.880198E-01  2.206053E+01

 displacements (vx,vy,vz) for set SENSOR and time  0.9257813E-02

      7572 -2.949126E-02 -8.052359E-01  2.241796E+01

 displacements (vx,vy,vz) for set SENSOR and time  0.9296875E-02

      7572 -8.545081E-03 -7.982822E-01  2.272117E+01

 displacements (vx,vy,vz) for set SENSOR and time  0.9335938E-02

      7572 -6.918432E-04 -7.728878E-01  2.286903E+01

 displacements (vx,vy,vz) for set SENSOR and time  0.9375000E-02

      7572 -1.031535E-03 -7.368387E-01  2.280037E+01

 displacements (vx,vy,vz) for set SENSOR and time  0.9414063E-02

      7572 -3.083515E-03 -6.923289E-01  2.251187E+01

 displacements (vx,vy,vz) for set SENSOR and time  0.9453125E-02

      7572 -3.825747E-03 -6.408795E-01  2.205799E+01

 displacements (vx,vy,vz) for set SENSOR and time  0.9492188E-02

      7572 -4.668154E-03 -5.874998E-01  2.151834E+01

 displacements (vx,vy,vz) for set SENSOR and time  0.9531250E-02

      7572 -7.805052E-03 -5.370131E-01  2.096498E+01

 displacements (vx,vy,vz) for set SENSOR and time  0.9570313E-02

      7572 -1.478029E-02 -4.919784E-01  2.047297E+01

 displacements (vx,vy,vz) for set SENSOR and time  0.9609375E-02

      7572 -2.598620E-02 -4.539997E-01  2.011641E+01

 displacements (vx,vy,vz) for set SENSOR and time  0.9648438E-02

      7572 -3.829056E-02 -4.219381E-01  1.991995E+01

 displacements (vx,vy,vz) for set SENSOR and time  0.9687500E-02

      7572 -4.716997E-02 -3.912282E-01  1.984379E+01

 displacements (vx,vy,vz) for set SENSOR and time  0.9726563E-02

      7572 -5.244480E-02 -3.593826E-01  1.982683E+01

 displacements (vx,vy,vz) for set SENSOR and time  0.9765625E-02

      7572 -5.834788E-02 -3.301823E-01  1.983052E+01