
 displacements (vx,vy,vz) for set SENSOR and time  0.3906250E-04

      7572 -3.932326E-02 -3.255446E-02  1.588111E-01

 displacements (vx,vy,vz) for set SENSOR and time  0.7812500E-04

      7572 -1.561489E-01 -1.304468E-01  4.483995E-01

 displacements (vx,vy,vz) for set SENSOR and time  0.1171875E-03

      7572 -4.859950E-02 -4.301174E-02 -4.093234E-01

 displacements (vx,vy,vz) for set SENSOR and time  0.1562500E-03

      7572  1.886339E-01  1.616083E-01 -7.976748E-01

 displacements (vx,vy,vz) for set SENSOR and time  0.1953125E-03

      7572  2.185495E-01  2.025356E-01  1.041629E+00

 displacements (vx,vy,vz) for set SENSOR and time  0.2343750E-03

      7572 -4.861337E-02 -2.427874E-02  3.107349E+00

 displacements (vx,vy,vz) for set SENSOR and time  0.2734375E-03

      7572 -3.787163E-01 -3.487424E-01  2.065305E+00

 displacements (vx,vy,vz) for set SENSOR and time  0.3125000E-03

      7572 -5.303544E-01 -5.445647E-01 -1.985550E+00

 displacements (vx,vy,vz) for set SENSOR and time  0.3515625E-03

      7572 -4.722424E-01 -5.225148E-01 -6.012836E+00

 displacements (vx,vy,vz) for set SENSOR and time  0.3906250E-03

      7572 -2.914695E-01 -3.169882E-01 -8.282903E+00

 displacements (vx,vy,vz) for set SENSOR and time  0.4296875E-03

      7572 -5.367778E-02 -9.065250E-03 -9.252488E+00

 displacements (vx,vy,vz) for set SENSOR and time  0.4687500E-03

      7572  1.890900E-01  2.884589E-01 -8.992471E+00

 displacements (vx,vy,vz) for set SENSOR and time  0.5078125E-03

      7572  3.677693E-01  4.535818E-01 -6.905437E+00

 displacements (vx,vy,vz) for set SENSOR and time  0.5468750E-03

      7572  4.531589E-01  4.359137E-01 -4.060611E+00

 displacements (vx,vy,vz) for set SENSOR and time  0.5859375E-03

      7572  4.890053E-01  3.026519E-01 -2.799685E+00

 displacements (vx,vy,vz) for set SENSOR and time  0.6250000E-03

      7572  5.208455E-01  1.873728E-01 -3.333623E+00

 displacements (vx,vy,vz) for set SENSOR and time  0.6640625E-03

      7572  5.398940E-01  2.100385E-01 -3.293672E+00

 displacements (vx,vy,vz) for set SENSOR and time  0.7031250E-03

      7572  5.347211E-01  4.216479E-01 -1.493513E+00

 displacements (vx,vy,vz) for set SENSOR and time  0.7421875E-03

      7572  5.448674E-01  7.522850E-01  4.149225E-01

 displacements (vx,vy,vz) for set SENSOR and time  0.7812500E-03

      7572  6.096453E-01  1.009461E+00  1.254661E+00

 displacements (vx,vy,vz) for set SENSOR and time  0.8203125E-03

      7572  6.969360E-01  1.026211E+00  2.728661E+00

 displacements (vx,vy,vz) for set SENSOR and time  0.8593750E-03

      7572  7.370523E-01  8.612518E-01  6.544924E+00

 displacements (vx,vy,vz) for set SENSOR and time  0.8984375E-03

      7572  7.158493E-01  7.678726E-01  1.119375E+01

 displacements (vx,vy,vz) for set SENSOR and time  0.9375000E-03

      7572  6.912676E-01  8.902172E-01  1.406965E+01

 displacements (vx,vy,vz) for set SENSOR and time  0.9765625E-03

      7572  7.132291E-01  1.067584E+00  1.542423E+01

 displacements (vx,vy,vz) for set SENSOR and time  0.1015625E-02

      7572  7.522625E-01  1.048031E+00  1.747289E+01

 displacements (vx,vy,vz) for set SENSOR and time  0.1054688E-02

      7572  7.240506E-01  8.390867E-01  2.029022E+01

 displacements (vx,vy,vz) for set SENSOR and time  0.1093750E-02

      7572  5.946744E-01  6.930300E-01  2.153185E+01

 displacements (vx,vy,vz) for set SENSOR and time  0.1132813E-02

      7572  4.598580E-01  7.372285E-01  2.042271E+01

 displacements (vx,vy,vz) for set SENSOR and time  0.1171875E-02

      7572  4.778682E-01  7.812629E-01  1.933656E+01

 displacements (vx,vy,vz) for set SENSOR and time  0.1210938E-02

      7572  6.756801E-01  5.785653E-01  2.047644E+01

 displacements (vx,vy,vz) for set SENSOR and time  0.1250000E-02

      7572  8.537294E-01  1.697715E-01  2.308109E+01

 displacements (vx,vy,vz) for set SENSOR and time  0.1289063E-02

      7572  7.760469E-01 -1.566704E-01  2.516500E+01

 displacements (vx,vy,vz) for set SENSOR and time  0.1328125E-02

      7572  4.695739E-01 -1.989834E-01  2.634980E+01

 displacements (vx,vy,vz) for set SENSOR and time  0.1367188E-02

      7572  2.340310E-01 -2.498602E-02  2.743157E+01

 displacements (vx,vy,vz) for set SENSOR and time  0.1406250E-02

      7572  2.951683E-01  1.631328E-01  2.832220E+01

 displacements (vx,vy,vz) for set SENSOR and time  0.1445313E-02

      7572  5.333876E-01  2.391050E-01  2.817683E+01

 displacements (vx,vy,vz) for set SENSOR and time  0.1484375E-02

      7572  6.477919E-01  2.100916E-01  2.708975E+01

 displacements (vx,vy,vz) for set SENSOR and time  0.1523438E-02

      7572  5.264120E-01  1.553118E-01  2.614262E+01

 displacements (vx,vy,vz) for set SENSOR and time  0.1562500E-02

      7572  3.332041E-01  1.539566E-01  2.581542E+01

 displacements (vx,vy,vz) for set SENSOR and time  0.1601563E-02

      7572  2.538966E-01  2.200278E-01  2.550744E+01

 displacements (vx,vy,vz) for set SENSOR and time  0.1640625E-02

      7572  2.941032E-01  2.680308E-01  2.471398E+01

 displacements (vx,vy,vz) for set SENSOR and time  0.1679688E-02

      7572  3.573012E-01  1.846652E-01  2.373971E+01

 displacements (vx,vy,vz) for set SENSOR and time  0.1718750E-02

      7572  3.968600E-01 -2.745366E-02  2.307380E+01

 displacements (vx,vy,vz) for set SENSOR and time  0.1757813E-02

      7572  4.146160E-01 -2.137567E-01  2.277638E+01

 displacements (vx,vy,vz) for set SENSOR and time  0.1796875E-02

      7572  3.933732E-01 -2.181814E-01  2.265405E+01

 displacements (vx,vy,vz) for set SENSOR and time  0.1835937E-02

      7572  3.258347E-01 -4.750457E-02  2.250757E+01

 displacements (vx,vy,vz) for set SENSOR and time  0.1875000E-02

      7572  2.711067E-01  1.478697E-01  2.215037E+01

 displacements (vx,vy,vz) for set SENSOR and time  0.1914062E-02

      7572  2.963905E-01  2.290585E-01  2.165992E+01

 displacements (vx,vy,vz) for set SENSOR and time  0.1953125E-02

      7572  3.721245E-01  1.644462E-01  2.150972E+01

 displacements (vx,vy,vz) for set SENSOR and time  0.1992187E-02

      7572  3.902108E-01  4.150916E-03  2.184241E+01

 displacements (vx,vy,vz) for set SENSOR and time  0.2031250E-02

      7572  2.883819E-01 -1.698847E-01  2.175625E+01

 displacements (vx,vy,vz) for set SENSOR and time  0.2070312E-02

      7572  1.137546E-01 -2.655801E-01  2.017505E+01

 displacements (vx,vy,vz) for set SENSOR and time  0.2109375E-02

      7572 -2.961497E-02 -2.208538E-01  1.750811E+01

 displacements (vx,vy,vz) for set SENSOR and time  0.2148437E-02

      7572 -5.792531E-02 -6.295453E-02  1.550470E+01

 displacements (vx,vy,vz) for set SENSOR and time  0.2187500E-02

      7572  4.761914E-02  9.628922E-02  1.510900E+01

 displacements (vx,vy,vz) for set SENSOR and time  0.2226562E-02

      7572  2.184404E-01  1.496900E-01  1.533956E+01

 displacements (vx,vy,vz) for set SENSOR and time  0.2265625E-02

      7572  3.315659E-01  7.005017E-02  1.484622E+01

 displacements (vx,vy,vz) for set SENSOR and time  0.2304687E-02

      7572  3.270663E-01 -1.007724E-01  1.373747E+01

 displacements (vx,vy,vz) for set SENSOR and time  0.2343750E-02

      7572  2.944983E-01 -3.006627E-01  1.300606E+01

 displacements (vx,vy,vz) for set SENSOR and time  0.2382812E-02

      7572  3.770754E-01 -4.695650E-01  1.277516E+01

 displacements (vx,vy,vz) for set SENSOR and time  0.2421875E-02

      7572  5.743677E-01 -5.640241E-01  1.228716E+01

 displacements (vx,vy,vz) for set SENSOR and time  0.2460937E-02

      7572  7.090771E-01 -5.902026E-01  1.151015E+01

 displacements (vx,vy,vz) for set SENSOR and time  0.2500000E-02

      7572  6.303876E-01 -6.070339E-01  1.161576E+01

 displacements (vx,vy,vz) for set SENSOR and time  0.2539062E-02

      7572  3.979714E-01 -6.612198E-01  1.349313E+01

 displacements (vx,vy,vz) for set SENSOR and time  0.2578125E-02

      7572  2.119717E-01 -7.239393E-01  1.654267E+01

 displacements (vx,vy,vz) for set SENSOR and time  0.2617187E-02

      7572  1.940656E-01 -7.197428E-01  1.941956E+01

 displacements (vx,vy,vz) for set SENSOR and time  0.2656250E-02

      7572  2.906726E-01 -6.156853E-01  2.149137E+01

 displacements (vx,vy,vz) for set SENSOR and time  0.2695312E-02

      7572  3.690628E-01 -4.586423E-01  2.308849E+01

 displacements (vx,vy,vz) for set SENSOR and time  0.2734375E-02

      7572  3.487506E-01 -3.276916E-01  2.463843E+01

 displacements (vx,vy,vz) for set SENSOR and time  0.2773437E-02

      7572  2.410041E-01 -2.711773E-01  2.608213E+01

 displacements (vx,vy,vz) for set SENSOR and time  0.2812500E-02

      7572  1.160643E-01 -2.834726E-01  2.709832E+01

 displacements (vx,vy,vz) for set SENSOR and time  0.2851562E-02

      7572  5.238462E-02 -3.144664E-01  2.751518E+01

 displacements (vx,vy,vz) for set SENSOR and time  0.2890625E-02

      7572  8.443340E-02 -3.028096E-01  2.737458E+01

 displacements (vx,vy,vz) for set SENSOR and time  0.2929687E-02

      7572  1.762455E-01 -2.304190E-01  2.673540E+01

 displacements (vx,vy,vz) for set SENSOR and time  0.2968750E-02

      7572  2.562992E-01 -1.487380E-01  2.552595E+01

 displacements (vx,vy,vz) for set SENSOR and time  0.3007812E-02

      7572  2.836464E-01 -1.229713E-01  2.364958E+01

 displacements (vx,vy,vz) for set SENSOR and time  0.3046875E-02

      7572  2.695181E-01 -1.489173E-01  2.129454E+01

 displacements (vx,vy,vz) for set SENSOR and time  0.3085937E-02

      7572  2.422337E-01 -1.637103E-01  1.906073E+01

 displacements (vx,vy,vz) for set SENSOR and time  0.3125000E-02

      7572  2.164913E-01 -1.480079E-01  1.759740E+01

 displacements (vx,vy,vz) for set SENSOR and time  0.3164062E-02

      7572  1.969059E-01 -1.651792E-01  1.712365E+01

 displacements (vx,vy,vz) for set SENSOR and time  0.3203125E-02

      7572  1.846786E-01 -2.623586E-01  1.747691E+01

 displacements (vx,vy,vz) for set SENSOR and time  0.3242187E-02

      7572  1.750632E-01 -3.765278E-01  1.852770E+01

 displacements (vx,vy,vz) for set SENSOR and time  0.3281250E-02

      7572  1.702478E-01 -4.001782E-01  2.014915E+01

 displacements (vx,vy,vz) for set SENSOR and time  0.3320312E-02

      7572  1.949260E-01 -3.232191E-01  2.173377E+01

 displacements (vx,vy,vz) for set SENSOR and time  0.3359375E-02

      7572  2.686550E-01 -2.443903E-01  2.229425E+01

 displacements (vx,vy,vz) for set SENSOR and time  0.3398437E-02

      7572  3.572405E-01 -2.369435E-01  2.146266E+01

 displacements (vx,vy,vz) for set SENSOR and time  0.3437500E-02

      7572  3.882107E-01 -2.660937E-01  2.009225E+01

 displacements (vx,vy,vz) for set SENSOR and time  0.3476562E-02

      7572  3.329393E-01 -2.644190E-01  1.940823E+01

 displacements (vx,vy,vz) for set SENSOR and time  0.3515625E-02

      7572  2.419003E-01 -2.321444E-01  1.971074E+01

 displacements (vx,vy,vz) for set SENSOR and time  0.3554687E-02

      7572  1.759697E-01 -2.154140E-01  2.034231E+01

 displacements (vx,vy,vz) for set SENSOR and time  0.3593750E-02

      7572  1.352558E-01 -2.226594E-01  2.078374E+01

 displacements (vx,vy,vz) for set SENSOR and time  0.3632812E-02

      7572  8.842560E-02 -2.223780E-01  2.118879E+01

 displacements (vx,vy,vz) for set SENSOR and time  0.3671875E-02

      7572  4.099289E-02 -2.114209E-01  2.175078E+01

 displacements (vx,vy,vz) for set SENSOR and time  0.3710937E-02

      7572  2.262186E-02 -2.249533E-01  2.212035E+01

 displacements (vx,vy,vz) for set SENSOR and time  0.3750000E-02

      7572  1.772794E-02 -2.654531E-01  2.179838E+01

 displacements (vx,vy,vz) for set SENSOR and time  0.3789062E-02

      7572 -3.449235E-02 -2.686294E-01  2.077214E+01

 displacements (vx,vy,vz) for set SENSOR and time  0.3828125E-02

      7572 -1.569383E-01 -1.696517E-01  1.942119E+01

 displacements (vx,vy,vz) for set SENSOR and time  0.3867187E-02

      7572 -2.932649E-01  1.839806E-02  1.801489E+01

 displacements (vx,vy,vz) for set SENSOR and time  0.3906250E-02

      7572 -3.714576E-01  2.138228E-01  1.662374E+01

 displacements (vx,vy,vz) for set SENSOR and time  0.3945312E-02

      7572 -3.796034E-01  3.396261E-01  1.534717E+01

 displacements (vx,vy,vz) for set SENSOR and time  0.3984375E-02

      7572 -3.558547E-01  3.740539E-01  1.425621E+01

 displacements (vx,vy,vz) for set SENSOR and time  0.4023437E-02

      7572 -3.263626E-01  3.489441E-01  1.316659E+01

 displacements (vx,vy,vz) for set SENSOR and time  0.4062500E-02

      7572 -2.811197E-01  3.213466E-01  1.180011E+01

 displacements (vx,vy,vz) for set SENSOR and time  0.4101562E-02

      7572 -2.023293E-01  3.345109E-01  1.018127E+01

 displacements (vx,vy,vz) for set SENSOR and time  0.4140625E-02

      7572 -9.609557E-02  3.814491E-01  8.588776E+00

 displacements (vx,vy,vz) for set SENSOR and time  0.4179687E-02

      7572  1.398224E-03  4.099488E-01  7.084795E+00

 displacements (vx,vy,vz) for set SENSOR and time  0.4218750E-02

      7572  4.179740E-02  3.830333E-01  5.395955E+00

 displacements (vx,vy,vz) for set SENSOR and time  0.4257812E-02

      7572  2.953490E-03  3.300001E-01  3.384310E+00

 displacements (vx,vy,vz) for set SENSOR and time  0.4296875E-02

      7572 -7.667280E-02  3.144365E-01  1.389258E+00

 displacements (vx,vy,vz) for set SENSOR and time  0.4335937E-02

      7572 -1.164227E-01  3.515972E-01 -8.184961E-02

 displacements (vx,vy,vz) for set SENSOR and time  0.4375000E-02

      7572 -6.632058E-02  3.845955E-01 -8.407620E-01

 displacements (vx,vy,vz) for set SENSOR and time  0.4414062E-02

      7572  4.469530E-02  3.545871E-01 -1.015288E+00

 displacements (vx,vy,vz) for set SENSOR and time  0.4453125E-02

      7572  1.462431E-01  2.737016E-01 -6.978865E-01

 displacements (vx,vy,vz) for set SENSOR and time  0.4492187E-02

      7572  1.990417E-01  2.091501E-01  1.497154E-01

 displacements (vx,vy,vz) for set SENSOR and time  0.4531250E-02

      7572  2.129375E-01  2.057721E-01  1.435428E+00

 displacements (vx,vy,vz) for set SENSOR and time  0.4570312E-02

      7572  2.120169E-01  2.437248E-01  2.775580E+00

 displacements (vx,vy,vz) for set SENSOR and time  0.4609375E-02

      7572  2.166857E-01  2.698479E-01  3.700853E+00

 displacements (vx,vy,vz) for set SENSOR and time  0.4648437E-02

      7572  2.546772E-01  2.539925E-01  3.993404E+00

 displacements (vx,vy,vz) for set SENSOR and time  0.4687500E-02

      7572  3.482780E-01  2.111864E-01  3.821265E+00

 displacements (vx,vy,vz) for set SENSOR and time  0.4726562E-02

      7572  4.759383E-01  1.793282E-01  3.601012E+00

 displacements (vx,vy,vz) for set SENSOR and time  0.4765625E-02

      7572  5.765389E-01  1.801033E-01  3.723232E+00

 displacements (vx,vy,vz) for set SENSOR and time  0.4804687E-02

      7572  6.129296E-01  1.970963E-01  4.318868E+00

 displacements (vx,vy,vz) for set SENSOR and time  0.4843750E-02

      7572  6.126496E-01  1.911872E-01  5.218941E+00

 displacements (vx,vy,vz) for set SENSOR and time  0.4882812E-02

      7572  6.275867E-01  1.415005E-01  6.125800E+00

 displacements (vx,vy,vz) for set SENSOR and time  0.4921875E-02

      7572  6.703343E-01  6.925782E-02  6.812366E+00

 displacements (vx,vy,vz) for set SENSOR and time  0.4960937E-02

      7572  7.102744E-01  1.468303E-02  7.154395E+00

 displacements (vx,vy,vz) for set SENSOR and time  0.5000000E-02

      7572  7.172612E-01 -7.791431E-03  7.047883E+00

 displacements (vx,vy,vz) for set SENSOR and time  0.5039062E-02

      7572  6.851431E-01 -2.272997E-02  6.432982E+00

 displacements (vx,vy,vz) for set SENSOR and time  0.5078125E-02

      7572  6.228061E-01 -6.299099E-02  5.472715E+00

 displacements (vx,vy,vz) for set SENSOR and time  0.5117187E-02

      7572  5.494303E-01 -1.364015E-01  4.650972E+00

 displacements (vx,vy,vz) for set SENSOR and time  0.5156250E-02

      7572  4.948646E-01 -2.245819E-01  4.567127E+00

 displacements (vx,vy,vz) for set SENSOR and time  0.5195312E-02

      7572  4.764168E-01 -3.021896E-01  5.534661E+00

 displacements (vx,vy,vz) for set SENSOR and time  0.5234375E-02

      7572  4.715594E-01 -3.502720E-01  7.354235E+00

 displacements (vx,vy,vz) for set SENSOR and time  0.5273437E-02

      7572  4.397799E-01 -3.616080E-01  9.500701E+00

 displacements (vx,vy,vz) for set SENSOR and time  0.5312500E-02

      7572  3.806813E-01 -3.450129E-01  1.153993E+01

 displacements (vx,vy,vz) for set SENSOR and time  0.5351562E-02

      7572  3.454824E-01 -3.195105E-01  1.333923E+01

 displacements (vx,vy,vz) for set SENSOR and time  0.5390625E-02

      7572  3.726962E-01 -2.935996E-01  1.489077E+01

 displacements (vx,vy,vz) for set SENSOR and time  0.5429687E-02

      7572  4.292774E-01 -2.538537E-01  1.605635E+01

 displacements (vx,vy,vz) for set SENSOR and time  0.5468750E-02

      7572  4.382208E-01 -1.846515E-01  1.661163E+01

 displacements (vx,vy,vz) for set SENSOR and time  0.5507812E-02

      7572  3.593102E-01 -9.539168E-02  1.649342E+01

 displacements (vx,vy,vz) for set SENSOR and time  0.5546875E-02

      7572  2.259212E-01 -1.435449E-02  1.583655E+01

 displacements (vx,vy,vz) for set SENSOR and time  0.5585937E-02

      7572  1.063712E-01  4.274461E-02  1.474830E+01

 displacements (vx,vy,vz) for set SENSOR and time  0.5625000E-02

      7572  4.659476E-02  7.986742E-02  1.324139E+01

 displacements (vx,vy,vz) for set SENSOR and time  0.5664062E-02

      7572  5.035270E-02  9.229617E-02  1.150091E+01

 displacements (vx,vy,vz) for set SENSOR and time  0.5703125E-02

      7572  9.532810E-02  5.410293E-02  1.002888E+01

 displacements (vx,vy,vz) for set SENSOR and time  0.5742187E-02

      7572  1.558989E-01 -4.626804E-02  9.276756E+00

 displacements (vx,vy,vz) for set SENSOR and time  0.5781250E-02

      7572  2.172791E-01 -1.701873E-01  9.167306E+00

 displacements (vx,vy,vz) for set SENSOR and time  0.5820312E-02

      7572  2.788745E-01 -2.550108E-01  9.180818E+00

 displacements (vx,vy,vz) for set SENSOR and time  0.5859375E-02

      7572  3.466895E-01 -2.787859E-01  8.913957E+00

 displacements (vx,vy,vz) for set SENSOR and time  0.5898437E-02

      7572  4.211470E-01 -2.781307E-01  8.360563E+00

 displacements (vx,vy,vz) for set SENSOR and time  0.5937500E-02

      7572  4.921652E-01 -2.932005E-01  7.638594E+00

 displacements (vx,vy,vz) for set SENSOR and time  0.5976562E-02

      7572  5.448035E-01 -3.129280E-01  6.719178E+00

 displacements (vx,vy,vz) for set SENSOR and time  0.6015625E-02

      7572  5.680847E-01 -2.913037E-01  5.589272E+00

 displacements (vx,vy,vz) for set SENSOR and time  0.6054687E-02

      7572  5.612090E-01 -2.080754E-01  4.488178E+00

 displacements (vx,vy,vz) for set SENSOR and time  0.6093750E-02

      7572  5.351799E-01 -9.413141E-02  3.744717E+00

 displacements (vx,vy,vz) for set SENSOR and time  0.6132812E-02

      7572  5.054054E-01  1.690138E-03  3.442113E+00

 displacements (vx,vy,vz) for set SENSOR and time  0.6171875E-02

      7572  4.764557E-01  5.274581E-02  3.427414E+00

 displacements (vx,vy,vz) for set SENSOR and time  0.6210937E-02

      7572  4.360303E-01  5.713875E-02  3.599929E+00

 displacements (vx,vy,vz) for set SENSOR and time  0.6250000E-02

      7572  3.722318E-01  1.827285E-02  3.985714E+00

 displacements (vx,vy,vz) for set SENSOR and time  0.6289062E-02

      7572  2.973264E-01 -6.067379E-02  4.531228E+00

 displacements (vx,vy,vz) for set SENSOR and time  0.6328125E-02

      7572  2.451366E-01 -1.671067E-01  5.044391E+00

 displacements (vx,vy,vz) for set SENSOR and time  0.6367187E-02

      7572  2.398517E-01 -2.775966E-01  5.429152E+00

 displacements (vx,vy,vz) for set SENSOR and time  0.6406250E-02

      7572  2.722504E-01 -3.696494E-01  5.826193E+00

 displacements (vx,vy,vz) for set SENSOR and time  0.6445312E-02

      7572  3.097804E-01 -4.294175E-01  6.409923E+00

 displacements (vx,vy,vz) for set SENSOR and time  0.6484375E-02

      7572  3.249654E-01 -4.481514E-01  7.143372E+00

 displacements (vx,vy,vz) for set SENSOR and time  0.6523437E-02

      7572  3.119124E-01 -4.205068E-01  7.837232E+00

 displacements (vx,vy,vz) for set SENSOR and time  0.6562500E-02

      7572  2.837653E-01 -3.531136E-01  8.377153E+00

 displacements (vx,vy,vz) for set SENSOR and time  0.6601562E-02

      7572  2.613851E-01 -2.711917E-01  8.782881E+00

 displacements (vx,vy,vz) for set SENSOR and time  0.6640625E-02

      7572  2.582411E-01 -2.084501E-01  9.085228E+00

 displacements (vx,vy,vz) for set SENSOR and time  0.6679687E-02

      7572  2.660828E-01 -1.856918E-01  9.257736E+00

 displacements (vx,vy,vz) for set SENSOR and time  0.6718750E-02

      7572  2.571428E-01 -1.985694E-01  9.281856E+00

 displacements (vx,vy,vz) for set SENSOR and time  0.6757812E-02

      7572  2.099457E-01 -2.263793E-01  9.216240E+00

 displacements (vx,vy,vz) for set SENSOR and time  0.6796875E-02

      7572  1.341918E-01 -2.530917E-01  9.179517E+00

 displacements (vx,vy,vz) for set SENSOR and time  0.6835937E-02

      7572  6.299228E-02 -2.805537E-01  9.266146E+00

 displacements (vx,vy,vz) for set SENSOR and time  0.6875000E-02

      7572  1.933789E-02 -3.212081E-01  9.442566E+00

 displacements (vx,vy,vz) for set SENSOR and time  0.6914062E-02

      7572 -2.174521E-03 -3.773112E-01  9.514381E+00

 displacements (vx,vy,vz) for set SENSOR and time  0.6953125E-02

      7572 -1.759409E-02 -4.287402E-01  9.268330E+00

 displacements (vx,vy,vz) for set SENSOR and time  0.6992187E-02

      7572 -2.603479E-02 -4.453381E-01  8.697650E+00

 displacements (vx,vy,vz) for set SENSOR and time  0.7031250E-02

      7572 -8.264207E-03 -4.139123E-01  8.022084E+00

 displacements (vx,vy,vz) for set SENSOR and time  0.7070312E-02

      7572  4.810502E-02 -3.509471E-01  7.426335E+00

 displacements (vx,vy,vz) for set SENSOR and time  0.7109375E-02

      7572  1.274615E-01 -2.848959E-01  6.862196E+00

 displacements (vx,vy,vz) for set SENSOR and time  0.7148437E-02

      7572  1.925489E-01 -2.259170E-01  6.204505E+00

 displacements (vx,vy,vz) for set SENSOR and time  0.7187500E-02

      7572  2.123894E-01 -1.568392E-01  5.511747E+00

 displacements (vx,vy,vz) for set SENSOR and time  0.7226562E-02

      7572  1.856351E-01 -5.636605E-02  4.966435E+00

 displacements (vx,vy,vz) for set SENSOR and time  0.7265625E-02

      7572  1.371649E-01  7.064309E-02  4.589901E+00

 displacements (vx,vy,vz) for set SENSOR and time  0.7304687E-02

      7572  9.095040E-02  1.891820E-01  4.206807E+00

 displacements (vx,vy,vz) for set SENSOR and time  0.7343750E-02

      7572  4.812626E-02  2.613535E-01  3.725678E+00

 displacements (vx,vy,vz) for set SENSOR and time  0.7382812E-02

      7572 -4.613361E-03  2.768885E-01  3.274425E+00

 displacements (vx,vy,vz) for set SENSOR and time  0.7421875E-02

      7572 -6.797695E-02  2.565281E-01  2.977230E+00

 displacements (vx,vy,vz) for set SENSOR and time  0.7460938E-02

      7572 -1.219512E-01  2.270278E-01  2.761931E+00

 displacements (vx,vy,vz) for set SENSOR and time  0.7500000E-02

      7572 -1.498818E-01  1.955883E-01  2.513107E+00

 displacements (vx,vy,vz) for set SENSOR and time  0.7539063E-02

      7572 -1.625588E-01  1.499014E-01  2.269559E+00

 displacements (vx,vy,vz) for set SENSOR and time  0.7578125E-02

      7572 -1.879922E-01  8.024809E-02  2.086437E+00

 displacements (vx,vy,vz) for set SENSOR and time  0.7617188E-02

      7572 -2.391241E-01 -4.142655E-03  1.794289E+00

 displacements (vx,vy,vz) for set SENSOR and time  0.7656250E-02

      7572 -3.010132E-01 -8.318050E-02  1.126839E+00

 displacements (vx,vy,vz) for set SENSOR and time  0.7695313E-02

      7572 -3.507275E-01 -1.464142E-01  1.010857E-01

 displacements (vx,vy,vz) for set SENSOR and time  0.7734375E-02

      7572 -3.807932E-01 -1.999657E-01 -9.213354E-01

 displacements (vx,vy,vz) for set SENSOR and time  0.7773438E-02

      7572 -3.991868E-01 -2.535350E-01 -1.612406E+00

 displacements (vx,vy,vz) for set SENSOR and time  0.7812500E-02

      7572 -4.143490E-01 -3.071274E-01 -1.970109E+00

 displacements (vx,vy,vz) for set SENSOR and time  0.7851563E-02

      7572 -4.282976E-01 -3.550123E-01 -2.164629E+00

 displacements (vx,vy,vz) for set SENSOR and time  0.7890625E-02

      7572 -4.414761E-01 -3.991182E-01 -2.240096E+00

 displacements (vx,vy,vz) for set SENSOR and time  0.7929688E-02

      7572 -4.561488E-01 -4.515677E-01 -2.096773E+00

 displacements (vx,vy,vz) for set SENSOR and time  0.7968750E-02

      7572 -4.727868E-01 -5.221282E-01 -1.685482E+00

 displacements (vx,vy,vz) for set SENSOR and time  0.8007813E-02

      7572 -4.864952E-01 -6.066312E-01 -1.086501E+00

 displacements (vx,vy,vz) for set SENSOR and time  0.8046875E-02

      7572 -4.885053E-01 -6.897022E-01 -4.283096E-01

 displacements (vx,vy,vz) for set SENSOR and time  0.8085938E-02

      7572 -4.700538E-01 -7.565079E-01  1.620304E-01

 displacements (vx,vy,vz) for set SENSOR and time  0.8125000E-02

      7572 -4.259602E-01 -8.000645E-01  5.468818E-01

 displacements (vx,vy,vz) for set SENSOR and time  0.8164063E-02

      7572 -3.578210E-01 -8.201004E-01  6.311349E-01

 displacements (vx,vy,vz) for set SENSOR and time  0.8203125E-02

      7572 -2.745207E-01 -8.195066E-01  4.529590E-01

 displacements (vx,vy,vz) for set SENSOR and time  0.8242188E-02

      7572 -1.871352E-01 -8.028322E-01  1.509330E-01

 displacements (vx,vy,vz) for set SENSOR and time  0.8281250E-02

      7572 -1.017613E-01 -7.754433E-01 -1.788423E-01

 displacements (vx,vy,vz) for set SENSOR and time  0.8320313E-02

      7572 -1.800508E-02 -7.421138E-01 -5.413889E-01

 displacements (vx,vy,vz) for set SENSOR and time  0.8359375E-02

      7572  6.551721E-02 -7.069839E-01 -9.606810E-01

 displacements (vx,vy,vz) for set SENSOR and time  0.8398438E-02

      7572  1.455946E-01 -6.752646E-01 -1.413664E+00

 displacements (vx,vy,vz) for set SENSOR and time  0.8437500E-02

      7572  2.141432E-01 -6.528287E-01 -1.870512E+00

 displacements (vx,vy,vz) for set SENSOR and time  0.8476563E-02

      7572  2.614919E-01 -6.410846E-01 -2.336624E+00

 displacements (vx,vy,vz) for set SENSOR and time  0.8515625E-02

      7572  2.799821E-01 -6.315803E-01 -2.815981E+00

 displacements (vx,vy,vz) for set SENSOR and time  0.8554688E-02

      7572  2.678402E-01 -6.082520E-01 -3.278324E+00

 displacements (vx,vy,vz) for set SENSOR and time  0.8593750E-02

      7572  2.325089E-01 -5.587401E-01 -3.701070E+00

 displacements (vx,vy,vz) for set SENSOR and time  0.8632813E-02

      7572  1.888587E-01 -4.855918E-01 -4.107666E+00

 displacements (vx,vy,vz) for set SENSOR and time  0.8671875E-02

      7572  1.501364E-01 -4.058837E-01 -4.522544E+00

 displacements (vx,vy,vz) for set SENSOR and time  0.8710938E-02

      7572  1.183180E-01 -3.384838E-01 -4.903732E+00

 displacements (vx,vy,vz) for set SENSOR and time  0.8750000E-02

      7572  8.411303E-02 -2.914011E-01 -5.138976E+00

 displacements (vx,vy,vz) for set SENSOR and time  0.8789063E-02

      7572  3.836493E-02 -2.616330E-01 -5.081816E+00

 displacements (vx,vy,vz) for set SENSOR and time  0.8828125E-02

      7572 -1.576042E-02 -2.449264E-01 -4.585371E+00

 displacements (vx,vy,vz) for set SENSOR and time  0.8867188E-02

      7572 -6.271139E-02 -2.407850E-01 -3.573419E+00

 displacements (vx,vy,vz) for set SENSOR and time  0.8906250E-02

      7572 -8.807129E-02 -2.455514E-01 -2.151812E+00

 displacements (vx,vy,vz) for set SENSOR and time  0.8945313E-02

      7572 -9.291134E-02 -2.449068E-01 -6.243664E-01

 displacements (vx,vy,vz) for set SENSOR and time  0.8984375E-02

      7572 -9.452163E-02 -2.209920E-01  6.826125E-01

 displacements (vx,vy,vz) for set SENSOR and time  0.9023438E-02

      7572 -1.128559E-01 -1.706475E-01  1.640400E+00

 displacements (vx,vy,vz) for set SENSOR and time  0.9062500E-02

      7572 -1.564791E-01 -1.137571E-01  2.345865E+00

 displacements (vx,vy,vz) for set SENSOR and time  0.9101563E-02

      7572 -2.203194E-01 -7.907836E-02  2.951433E+00

 displacements (vx,vy,vz) for set SENSOR and time  0.9140625E-02

      7572 -2.930777E-01 -8.030095E-02  3.521301E+00

 displacements (vx,vy,vz) for set SENSOR and time  0.9179688E-02

      7572 -3.638381E-01 -1.059431E-01  4.054352E+00

 displacements (vx,vy,vz) for set SENSOR and time  0.9218750E-02

      7572 -4.237540E-01 -1.309311E-01  4.578578E+00

 displacements (vx,vy,vz) for set SENSOR and time  0.9257813E-02

      7572 -4.667733E-01 -1.362623E-01  5.171906E+00

 displacements (vx,vy,vz) for set SENSOR and time  0.9296875E-02

      7572 -4.911083E-01 -1.196519E-01  5.903408E+00

 displacements (vx,vy,vz) for set SENSOR and time  0.9335938E-02

      7572 -4.981720E-01 -9.255654E-02  6.778108E+00

 displacements (vx,vy,vz) for set SENSOR and time  0.9375000E-02

      7572 -4.893031E-01 -6.992747E-02  7.734569E+00

 displacements (vx,vy,vz) for set SENSOR and time  0.9414063E-02

      7572 -4.659812E-01 -6.066470E-02  8.696065E+00

 displacements (vx,vy,vz) for set SENSOR and time  0.9453125E-02

      7572 -4.338763E-01 -6.392475E-02  9.646053E+00

 displacements (vx,vy,vz) for set SENSOR and time  0.9492188E-02

      7572 -4.023599E-01 -7.272582E-02  1.065578E+01

 displacements (vx,vy,vz) for set SENSOR and time  0.9531250E-02

      7572 -3.762670E-01 -8.095925E-02  1.180601E+01

 displacements (vx,vy,vz) for set SENSOR and time  0.9570313E-02

      7572 -3.506515E-01 -8.655341E-02  1.307030E+01

 displacements (vx,vy,vz) for set SENSOR and time  0.9609375E-02

      7572 -3.183635E-01 -8.805901E-02  1.430803E+01

 displacements (vx,vy,vz) for set SENSOR and time  0.9648438E-02

      7572 -2.818979E-01 -8.063571E-02  1.538994E+01

 displacements (vx,vy,vz) for set SENSOR and time  0.9687500E-02

      7572 -2.525987E-01 -5.853891E-02  1.629791E+01

 displacements (vx,vy,vz) for set SENSOR and time  0.9726563E-02

      7572 -2.371335E-01 -2.204733E-02  1.708267E+01

 displacements (vx,vy,vz) for set SENSOR and time  0.9765625E-02

      7572 -2.294015E-01  2.034150E-02  1.777079E+01