
 displacements (vx,vy,vz) for set SENSOR and time  0.3906250E-04

      7572  4.131390E-03 -9.113516E-03  2.567921E-02

 displacements (vx,vy,vz) for set SENSOR and time  0.7812500E-04

      7572  1.252884E-02 -3.537658E-02  8.311157E-02

 displacements (vx,vy,vz) for set SENSOR and time  0.1171875E-03

      7572 -5.932398E-03 -1.078906E-02 -1.047618E-02

 displacements (vx,vy,vz) for set SENSOR and time  0.1562500E-03

      7572 -1.482267E-02  3.235761E-02 -6.389699E-02

 displacements (vx,vy,vz) for set SENSOR and time  0.1953125E-03

      7572  1.290727E-02  2.150387E-02  3.058174E-02

 displacements (vx,vy,vz) for set SENSOR and time  0.2343750E-03

      7572  2.091195E-02 -2.742355E-02  2.111387E-02

 displacements (vx,vy,vz) for set SENSOR and time  0.2734375E-03

      7572 -2.503095E-02 -3.463598E-02 -8.578961E-02

 displacements (vx,vy,vz) for set SENSOR and time  0.3125000E-03

      7572 -4.228705E-02  1.601863E-02  5.932576E-02

 displacements (vx,vy,vz) for set SENSOR and time  0.3515625E-03

      7572  3.691700E-02  4.903794E-02  2.687929E-01

 displacements (vx,vy,vz) for set SENSOR and time  0.3906250E-03

      7572  1.024851E-01  1.065880E-02 -1.191732E-01

 displacements (vx,vy,vz) for set SENSOR and time  0.4296875E-03

      7572 -9.779316E-04 -5.038680E-02 -7.967511E-01

 displacements (vx,vy,vz) for set SENSOR and time  0.4687500E-03

      7572 -1.915863E-01 -5.220783E-02 -3.933636E-01

 displacements (vx,vy,vz) for set SENSOR and time  0.5078125E-03

      7572 -1.917472E-01  6.224318E-03  1.259393E+00

 displacements (vx,vy,vz) for set SENSOR and time  0.5468750E-03

      7572  8.106507E-02  4.788377E-02  2.111188E+00

 displacements (vx,vy,vz) for set SENSOR and time  0.5859375E-03

      7572  3.408263E-01  2.865297E-02  5.882938E-01

 displacements (vx,vy,vz) for set SENSOR and time  0.6250000E-03

      7572  2.912188E-01  1.625073E-03 -1.795210E+00

 displacements (vx,vy,vz) for set SENSOR and time  0.6640625E-03

      7572  3.171877E-02  4.315833E-02 -2.407294E+00

 displacements (vx,vy,vz) for set SENSOR and time  0.7031250E-03

      7572 -9.103527E-02  1.300821E-01 -1.383552E+00

 displacements (vx,vy,vz) for set SENSOR and time  0.7421875E-03

      7572  1.185433E-02  1.338271E-01 -1.283514E+00

 displacements (vx,vy,vz) for set SENSOR and time  0.7812500E-03

      7572  4.237336E-02 -3.257981E-02 -2.887014E+00

 displacements (vx,vy,vz) for set SENSOR and time  0.8203125E-03

      7572 -2.494333E-01 -2.796398E-01 -3.668926E+00

 displacements (vx,vy,vz) for set SENSOR and time  0.8593750E-03

      7572 -6.870471E-01 -4.028715E-01 -1.250568E+00

 displacements (vx,vy,vz) for set SENSOR and time  0.8984375E-03

      7572 -8.601546E-01 -2.955285E-01  3.476817E+00

 displacements (vx,vy,vz) for set SENSOR and time  0.9375000E-03

      7572 -5.959438E-01 -6.112267E-02  7.728152E+00

 displacements (vx,vy,vz) for set SENSOR and time  0.9765625E-03

      7572 -9.872012E-02  1.120495E-01  9.807862E+00

 displacements (vx,vy,vz) for set SENSOR and time  0.1015625E-02

      7572  3.265313E-01  1.461549E-01  9.549001E+00

 displacements (vx,vy,vz) for set SENSOR and time  0.1054688E-02

      7572  5.424432E-01  9.962497E-02  7.203236E+00

 displacements (vx,vy,vz) for set SENSOR and time  0.1093750E-02

      7572  5.771172E-01  4.593499E-02  3.538168E+00

 displacements (vx,vy,vz) for set SENSOR and time  0.1132813E-02

      7572  5.041325E-01  1.542364E-02  2.103165E-01

 displacements (vx,vy,vz) for set SENSOR and time  0.1171875E-02

      7572  3.951250E-01  4.646224E-02 -1.587320E+00

 displacements (vx,vy,vz) for set SENSOR and time  0.1210938E-02

      7572  3.099055E-01  1.826688E-01 -2.465018E+00

 displacements (vx,vy,vz) for set SENSOR and time  0.1250000E-02

      7572  2.570646E-01  3.726148E-01 -3.537498E+00

 displacements (vx,vy,vz) for set SENSOR and time  0.1289063E-02

      7572  1.952566E-01  4.638946E-01 -4.348625E+00

 displacements (vx,vy,vz) for set SENSOR and time  0.1328125E-02

      7572  1.158917E-01  3.780351E-01 -3.672702E+00

 displacements (vx,vy,vz) for set SENSOR and time  0.1367188E-02

      7572  8.599789E-02  2.288696E-01 -2.033832E+00

 displacements (vx,vy,vz) for set SENSOR and time  0.1406250E-02

      7572  1.606773E-01  1.697714E-01 -1.535528E+00

 displacements (vx,vy,vz) for set SENSOR and time  0.1445313E-02

      7572  2.851229E-01  1.676347E-01 -2.947150E+00

 displacements (vx,vy,vz) for set SENSOR and time  0.1484375E-02

      7572  3.420841E-01  5.720109E-02 -4.701991E+00

 displacements (vx,vy,vz) for set SENSOR and time  0.1523438E-02

      7572  2.857305E-01 -1.794427E-01 -5.346897E+00

 displacements (vx,vy,vz) for set SENSOR and time  0.1562500E-02

      7572  1.780529E-01 -3.329831E-01 -5.335595E+00

 displacements (vx,vy,vz) for set SENSOR and time  0.1601563E-02

      7572  9.676738E-02 -2.378329E-01 -5.496721E+00

 displacements (vx,vy,vz) for set SENSOR and time  0.1640625E-02

      7572  5.837345E-02 -1.375153E-02 -5.285183E+00

 displacements (vx,vy,vz) for set SENSOR and time  0.1679688E-02

      7572  4.186887E-02  7.707323E-02 -3.960171E+00

 displacements (vx,vy,vz) for set SENSOR and time  0.1718750E-02

      7572  4.129232E-02 -4.255819E-02 -2.372124E+00

 displacements (vx,vy,vz) for set SENSOR and time  0.1757813E-02

      7572  6.635599E-02 -2.059903E-01 -1.905075E+00

 displacements (vx,vy,vz) for set SENSOR and time  0.1796875E-02

      7572  1.159757E-01 -2.595034E-01 -2.271328E+00

 displacements (vx,vy,vz) for set SENSOR and time  0.1835937E-02

      7572  1.779996E-01 -2.487157E-01 -2.093425E+00

 displacements (vx,vy,vz) for set SENSOR and time  0.1875000E-02

      7572  2.457572E-01 -3.034711E-01 -1.469184E+00

 displacements (vx,vy,vz) for set SENSOR and time  0.1914062E-02

      7572  3.183295E-01 -4.359862E-01 -2.174122E+00

 displacements (vx,vy,vz) for set SENSOR and time  0.1953125E-02

      7572  3.889562E-01 -5.380732E-01 -4.977762E+00

 displacements (vx,vy,vz) for set SENSOR and time  0.1992187E-02

      7572  4.403105E-01 -5.338393E-01 -8.319592E+00

 displacements (vx,vy,vz) for set SENSOR and time  0.2031250E-02

      7572  4.462036E-01 -4.524426E-01 -1.039262E+01

 displacements (vx,vy,vz) for set SENSOR and time  0.2070312E-02

      7572  3.811967E-01 -3.578140E-01 -1.132999E+01

 displacements (vx,vy,vz) for set SENSOR and time  0.2109375E-02

      7572  2.465342E-01 -2.739691E-01 -1.236007E+01

 displacements (vx,vy,vz) for set SENSOR and time  0.2148437E-02

      7572  8.843355E-02 -1.931331E-01 -1.368087E+01

 displacements (vx,vy,vz) for set SENSOR and time  0.2187500E-02

      7572 -3.391307E-02 -1.070456E-01 -1.433717E+01

 displacements (vx,vy,vz) for set SENSOR and time  0.2226562E-02

      7572 -1.108936E-01 -2.562024E-03 -1.380762E+01

 displacements (vx,vy,vz) for set SENSOR and time  0.2265625E-02

      7572 -1.910862E-01  1.442797E-01 -1.266244E+01

 displacements (vx,vy,vz) for set SENSOR and time  0.2304687E-02

      7572 -3.084707E-01  3.376595E-01 -1.171902E+01

 displacements (vx,vy,vz) for set SENSOR and time  0.2343750E-02

      7572 -4.199327E-01  5.311524E-01 -1.134267E+01

 displacements (vx,vy,vz) for set SENSOR and time  0.2382812E-02

      7572 -4.442067E-01  6.480969E-01 -1.154858E+01

 displacements (vx,vy,vz) for set SENSOR and time  0.2421875E-02

      7572 -3.596925E-01  6.413617E-01 -1.203161E+01

 displacements (vx,vy,vz) for set SENSOR and time  0.2460937E-02

      7572 -2.411582E-01  5.357846E-01 -1.198299E+01

 displacements (vx,vy,vz) for set SENSOR and time  0.2500000E-02

      7572 -1.966282E-01  4.141737E-01 -1.055436E+01

 displacements (vx,vy,vz) for set SENSOR and time  0.2539062E-02

      7572 -2.796087E-01  3.537393E-01 -7.788899E+00

 displacements (vx,vy,vz) for set SENSOR and time  0.2578125E-02

      7572 -4.565779E-01  3.628157E-01 -4.693853E+00

 displacements (vx,vy,vz) for set SENSOR and time  0.2617187E-02

      7572 -6.390526E-01  3.807860E-01 -2.257350E+00

 displacements (vx,vy,vz) for set SENSOR and time  0.2656250E-02

      7572 -7.449960E-01  3.506701E-01 -7.909394E-01

 displacements (vx,vy,vz) for set SENSOR and time  0.2695312E-02

      7572 -7.486489E-01  2.862878E-01 -2.537545E-01

 displacements (vx,vy,vz) for set SENSOR and time  0.2734375E-02

      7572 -6.839719E-01  2.505878E-01 -5.414863E-01

 displacements (vx,vy,vz) for set SENSOR and time  0.2773437E-02

      7572 -6.005104E-01  2.725885E-01 -1.108890E+00

 displacements (vx,vy,vz) for set SENSOR and time  0.2812500E-02

      7572 -5.223140E-01  3.132395E-01 -9.270566E-01

 displacements (vx,vy,vz) for set SENSOR and time  0.2851562E-02

      7572 -4.551987E-01  3.193874E-01  5.143569E-01

 displacements (vx,vy,vz) for set SENSOR and time  0.2890625E-02

      7572 -4.137748E-01  2.816940E-01  2.408315E+00

 displacements (vx,vy,vz) for set SENSOR and time  0.2929687E-02

      7572 -4.109740E-01  2.215825E-01  3.455729E+00

 displacements (vx,vy,vz) for set SENSOR and time  0.2968750E-02

      7572 -4.264916E-01  1.488474E-01  3.447043E+00

 displacements (vx,vy,vz) for set SENSOR and time  0.3007812E-02

      7572 -4.227318E-01  6.408268E-02  3.486167E+00

 displacements (vx,vy,vz) for set SENSOR and time  0.3046875E-02

      7572 -4.013304E-01 -1.209039E-02  4.578047E+00

 displacements (vx,vy,vz) for set SENSOR and time  0.3085937E-02

      7572 -4.082783E-01 -4.929211E-02  6.501684E+00

 displacements (vx,vy,vz) for set SENSOR and time  0.3125000E-02

      7572 -4.630433E-01 -4.597977E-02  8.296671E+00

 displacements (vx,vy,vz) for set SENSOR and time  0.3164062E-02

      7572 -5.166556E-01 -2.604849E-02  9.428934E+00

 displacements (vx,vy,vz) for set SENSOR and time  0.3203125E-02

      7572 -5.137576E-01  5.250961E-03  1.007578E+01

 displacements (vx,vy,vz) for set SENSOR and time  0.3242187E-02

      7572 -4.697961E-01  6.573882E-02  1.048020E+01

 displacements (vx,vy,vz) for set SENSOR and time  0.3281250E-02

      7572 -4.396459E-01  1.425440E-01  1.049802E+01

 displacements (vx,vy,vz) for set SENSOR and time  0.3320312E-02

      7572 -4.211006E-01  1.705953E-01  9.869486E+00

 displacements (vx,vy,vz) for set SENSOR and time  0.3359375E-02

      7572 -3.468503E-01  9.991000E-02  8.659559E+00

 displacements (vx,vy,vz) for set SENSOR and time  0.3398437E-02

      7572 -1.879744E-01 -3.103220E-02  7.264145E+00

 displacements (vx,vy,vz) for set SENSOR and time  0.3437500E-02

      7572 -1.710582E-02 -1.240333E-01  6.084081E+00

 displacements (vx,vy,vz) for set SENSOR and time  0.3476562E-02

      7572  6.723081E-02 -1.224414E-01  5.289914E+00

 displacements (vx,vy,vz) for set SENSOR and time  0.3515625E-02

      7572  5.258139E-02 -5.759635E-02  4.815906E+00

 displacements (vx,vy,vz) for set SENSOR and time  0.3554687E-02

      7572  1.163184E-02  5.188810E-03  4.450580E+00

 displacements (vx,vy,vz) for set SENSOR and time  0.3593750E-02

      7572  2.934755E-03  3.573708E-02  3.950125E+00

 displacements (vx,vy,vz) for set SENSOR and time  0.3632812E-02

      7572  1.003680E-02  4.188353E-02  3.203274E+00

 displacements (vx,vy,vz) for set SENSOR and time  0.3671875E-02

      7572 -2.140725E-02  3.117548E-02  2.371863E+00

 displacements (vx,vy,vz) for set SENSOR and time  0.3710937E-02

      7572 -1.197228E-01 -1.392445E-03  1.810729E+00

 displacements (vx,vy,vz) for set SENSOR and time  0.3750000E-02

      7572 -2.689570E-01 -5.327673E-02  1.736123E+00

 displacements (vx,vy,vz) for set SENSOR and time  0.3789062E-02

      7572 -4.252890E-01 -1.051544E-01  1.961155E+00

 displacements (vx,vy,vz) for set SENSOR and time  0.3828125E-02

      7572 -5.337994E-01 -1.371595E-01  2.065543E+00

 displacements (vx,vy,vz) for set SENSOR and time  0.3867187E-02

      7572 -5.502769E-01 -1.429937E-01  1.893573E+00

 displacements (vx,vy,vz) for set SENSOR and time  0.3906250E-02

      7572 -4.744166E-01 -1.257692E-01  1.791770E+00

 displacements (vx,vy,vz) for set SENSOR and time  0.3945312E-02

      7572 -3.603391E-01 -9.310557E-02  2.219625E+00

 displacements (vx,vy,vz) for set SENSOR and time  0.3984375E-02

      7572 -2.759538E-01 -6.513073E-02  3.154104E+00

 displacements (vx,vy,vz) for set SENSOR and time  0.4023437E-02

      7572 -2.461260E-01 -7.737867E-02  4.045102E+00

 displacements (vx,vy,vz) for set SENSOR and time  0.4062500E-02

      7572 -2.422176E-01 -1.563788E-01  4.412941E+00

 displacements (vx,vy,vz) for set SENSOR and time  0.4101562E-02

      7572 -2.255393E-01 -2.829778E-01  4.331311E+00

 displacements (vx,vy,vz) for set SENSOR and time  0.4140625E-02

      7572 -1.887603E-01 -3.891682E-01  4.182602E+00

 displacements (vx,vy,vz) for set SENSOR and time  0.4179687E-02

      7572 -1.496479E-01 -4.092858E-01  4.062554E+00

 displacements (vx,vy,vz) for set SENSOR and time  0.4218750E-02

      7572 -1.141326E-01 -3.416575E-01  3.695547E+00

 displacements (vx,vy,vz) for set SENSOR and time  0.4257812E-02

      7572 -5.917014E-02 -2.498993E-01  3.002492E+00

 displacements (vx,vy,vz) for set SENSOR and time  0.4296875E-02

      7572  4.238548E-02 -1.951278E-01  2.509689E+00

 displacements (vx,vy,vz) for set SENSOR and time  0.4335937E-02

      7572  1.821295E-01 -1.787872E-01  2.933614E+00

 displacements (vx,vy,vz) for set SENSOR and time  0.4375000E-02

      7572  3.058037E-01 -1.680760E-01  4.377241E+00

 displacements (vx,vy,vz) for set SENSOR and time  0.4414062E-02

      7572  3.473921E-01 -1.627705E-01  6.154000E+00

 displacements (vx,vy,vz) for set SENSOR and time  0.4453125E-02

      7572  2.787477E-01 -1.971504E-01  7.490549E+00

 displacements (vx,vy,vz) for set SENSOR and time  0.4492187E-02

      7572  1.306565E-01 -2.651104E-01  8.228373E+00

 displacements (vx,vy,vz) for set SENSOR and time  0.4531250E-02

      7572 -3.113915E-02 -2.870537E-01  8.666740E+00

 displacements (vx,vy,vz) for set SENSOR and time  0.4570312E-02

      7572 -1.507912E-01 -1.963828E-01  8.861555E+00

 displacements (vx,vy,vz) for set SENSOR and time  0.4609375E-02

      7572 -2.106707E-01 -4.357390E-02  8.424001E+00

 displacements (vx,vy,vz) for set SENSOR and time  0.4648437E-02

      7572 -2.269417E-01  3.856327E-02  7.127762E+00

 displacements (vx,vy,vz) for set SENSOR and time  0.4687500E-02

      7572 -2.252192E-01 -1.451627E-02  5.453064E+00

 displacements (vx,vy,vz) for set SENSOR and time  0.4726562E-02

      7572 -2.210144E-01 -1.255879E-01  4.248289E+00

 displacements (vx,vy,vz) for set SENSOR and time  0.4765625E-02

      7572 -2.194733E-01 -1.773770E-01  3.911300E+00

 displacements (vx,vy,vz) for set SENSOR and time  0.4804687E-02

      7572 -2.266282E-01 -1.512425E-01  4.137677E+00

 displacements (vx,vy,vz) for set SENSOR and time  0.4843750E-02

      7572 -2.507275E-01 -1.227224E-01  4.459252E+00

 displacements (vx,vy,vz) for set SENSOR and time  0.4882812E-02

      7572 -2.868333E-01 -1.406784E-01  4.746790E+00

 displacements (vx,vy,vz) for set SENSOR and time  0.4921875E-02

      7572 -3.080395E-01 -1.681872E-01  5.060823E+00

 displacements (vx,vy,vz) for set SENSOR and time  0.4960937E-02

      7572 -2.869826E-01 -1.532976E-01  5.255106E+00

 displacements (vx,vy,vz) for set SENSOR and time  0.5000000E-02

      7572 -2.285460E-01 -1.093776E-01  5.009208E+00

 displacements (vx,vy,vz) for set SENSOR and time  0.5039062E-02

      7572 -1.678896E-01 -9.178347E-02  4.221494E+00

 displacements (vx,vy,vz) for set SENSOR and time  0.5078125E-02

      7572 -1.301405E-01 -1.210918E-01  3.173605E+00

 displacements (vx,vy,vz) for set SENSOR and time  0.5117187E-02

      7572 -1.075460E-01 -1.676134E-01  2.276023E+00

 displacements (vx,vy,vz) for set SENSOR and time  0.5156250E-02

      7572 -8.973886E-02 -2.038413E-01  1.754639E+00

 displacements (vx,vy,vz) for set SENSOR and time  0.5195312E-02

      7572 -9.961073E-02 -2.362726E-01  1.564005E+00

 displacements (vx,vy,vz) for set SENSOR and time  0.5234375E-02

      7572 -1.695881E-01 -2.779259E-01  1.469058E+00

 displacements (vx,vy,vz) for set SENSOR and time  0.5273437E-02

      7572 -2.832153E-01 -3.160860E-01  1.205348E+00

 displacements (vx,vy,vz) for set SENSOR and time  0.5312500E-02

      7572 -3.723999E-01 -3.243697E-01  6.976062E-01

 displacements (vx,vy,vz) for set SENSOR and time  0.5351562E-02

      7572 -3.885246E-01 -2.952669E-01  1.510066E-01

 displacements (vx,vy,vz) for set SENSOR and time  0.5390625E-02

      7572 -3.537479E-01 -2.477812E-01 -1.985612E-01

 displacements (vx,vy,vz) for set SENSOR and time  0.5429687E-02

      7572 -3.208992E-01 -2.085818E-01 -4.488231E-01

 displacements (vx,vy,vz) for set SENSOR and time  0.5468750E-02

      7572 -3.017658E-01 -1.936170E-01 -9.885401E-01

 displacements (vx,vy,vz) for set SENSOR and time  0.5507812E-02

      7572 -2.664815E-01 -2.011165E-01 -2.021605E+00

 displacements (vx,vy,vz) for set SENSOR and time  0.5546875E-02

      7572 -2.054865E-01 -2.117766E-01 -3.295080E+00

 displacements (vx,vy,vz) for set SENSOR and time  0.5585937E-02

      7572 -1.527820E-01 -1.983871E-01 -4.424228E+00

 displacements (vx,vy,vz) for set SENSOR and time  0.5625000E-02

      7572 -1.360133E-01 -1.454727E-01 -5.342408E+00

 displacements (vx,vy,vz) for set SENSOR and time  0.5664062E-02

      7572 -1.345236E-01 -6.261573E-02 -6.246380E+00

 displacements (vx,vy,vz) for set SENSOR and time  0.5703125E-02

      7572 -1.091096E-01  2.372775E-02 -7.197476E+00

 displacements (vx,vy,vz) for set SENSOR and time  0.5742187E-02

      7572 -5.263972E-02  8.968116E-02 -8.012181E+00

 displacements (vx,vy,vz) for set SENSOR and time  0.5781250E-02

      7572  1.441063E-02  1.234679E-01 -8.527924E+00

 displacements (vx,vy,vz) for set SENSOR and time  0.5820312E-02

      7572  8.276830E-02  1.232850E-01 -8.731889E+00

 displacements (vx,vy,vz) for set SENSOR and time  0.5859375E-02

      7572  1.542717E-01  9.688881E-02 -8.565912E+00

 displacements (vx,vy,vz) for set SENSOR and time  0.5898437E-02

      7572  2.059308E-01  6.345130E-02 -7.842276E+00

 displacements (vx,vy,vz) for set SENSOR and time  0.5937500E-02

      7572  1.924676E-01  4.508226E-02 -6.528450E+00

 displacements (vx,vy,vz) for set SENSOR and time  0.5976562E-02

      7572  1.026629E-01  4.884850E-02 -4.986510E+00

 displacements (vx,vy,vz) for set SENSOR and time  0.6015625E-02

      7572 -1.078153E-02  5.879264E-02 -3.735220E+00

 displacements (vx,vy,vz) for set SENSOR and time  0.6054687E-02

      7572 -8.075382E-02  4.947324E-02 -2.993899E+00

 displacements (vx,vy,vz) for set SENSOR and time  0.6093750E-02

      7572 -9.344400E-02  8.244655E-03 -2.573590E+00

 displacements (vx,vy,vz) for set SENSOR and time  0.6132812E-02

      7572 -8.757318E-02 -5.468317E-02 -2.171509E+00

 displacements (vx,vy,vz) for set SENSOR and time  0.6171875E-02

      7572 -9.733969E-02 -1.158141E-01 -1.634137E+00

 displacements (vx,vy,vz) for set SENSOR and time  0.6210937E-02

      7572 -1.215439E-01 -1.583185E-01 -9.480695E-01

 displacements (vx,vy,vz) for set SENSOR and time  0.6250000E-02

      7572 -1.468708E-01 -1.848081E-01 -1.372493E-01

 displacements (vx,vy,vz) for set SENSOR and time  0.6289062E-02

      7572 -1.731879E-01 -2.089678E-01  7.552825E-01

 displacements (vx,vy,vz) for set SENSOR and time  0.6328125E-02

      7572 -2.035014E-01 -2.322896E-01  1.666075E+00

 displacements (vx,vy,vz) for set SENSOR and time  0.6367187E-02

      7572 -2.280428E-01 -2.351938E-01  2.559504E+00

 displacements (vx,vy,vz) for set SENSOR and time  0.6406250E-02

      7572 -2.363354E-01 -2.022654E-01  3.443678E+00

 displacements (vx,vy,vz) for set SENSOR and time  0.6445312E-02

      7572 -2.369604E-01 -1.554822E-01  4.315808E+00

 displacements (vx,vy,vz) for set SENSOR and time  0.6484375E-02

      7572 -2.502075E-01 -1.457862E-01  5.143028E+00

 displacements (vx,vy,vz) for set SENSOR and time  0.6523437E-02

      7572 -2.842155E-01 -1.994266E-01  5.921494E+00

 displacements (vx,vy,vz) for set SENSOR and time  0.6562500E-02

      7572 -3.296464E-01 -2.809360E-01  6.694171E+00

 displacements (vx,vy,vz) for set SENSOR and time  0.6601562E-02

      7572 -3.745415E-01 -3.247939E-01  7.467748E+00

 displacements (vx,vy,vz) for set SENSOR and time  0.6640625E-02

      7572 -4.121010E-01 -3.036759E-01  8.161658E+00

 displacements (vx,vy,vz) for set SENSOR and time  0.6679687E-02

      7572 -4.351512E-01 -2.529742E-01  8.694312E+00

 displacements (vx,vy,vz) for set SENSOR and time  0.6718750E-02

      7572 -4.366938E-01 -2.262760E-01  9.092802E+00

 displacements (vx,vy,vz) for set SENSOR and time  0.6757812E-02

      7572 -4.195193E-01 -2.404167E-01  9.468758E+00

 displacements (vx,vy,vz) for set SENSOR and time  0.6796875E-02

      7572 -3.945223E-01 -2.713429E-01  9.898908E+00

 displacements (vx,vy,vz) for set SENSOR and time  0.6835937E-02

      7572 -3.648970E-01 -2.906813E-01  1.036377E+01

 displacements (vx,vy,vz) for set SENSOR and time  0.6875000E-02

      7572 -3.218543E-01 -2.902209E-01  1.079035E+01

 displacements (vx,vy,vz) for set SENSOR and time  0.6914062E-02

      7572 -2.622429E-01 -2.739758E-01  1.112988E+01

 displacements (vx,vy,vz) for set SENSOR and time  0.6953125E-02

      7572 -2.014271E-01 -2.439057E-01  1.141682E+01

 displacements (vx,vy,vz) for set SENSOR and time  0.6992187E-02

      7572 -1.602906E-01 -2.019697E-01  1.177950E+01

 displacements (vx,vy,vz) for set SENSOR and time  0.7031250E-02

      7572 -1.466371E-01 -1.582913E-01  1.235980E+01

 displacements (vx,vy,vz) for set SENSOR and time  0.7070312E-02

      7572 -1.584958E-01 -1.275913E-01  1.317283E+01

 displacements (vx,vy,vz) for set SENSOR and time  0.7109375E-02

      7572 -1.970561E-01 -1.174752E-01  1.405573E+01

 displacements (vx,vy,vz) for set SENSOR and time  0.7148437E-02

      7572 -2.597187E-01 -1.239418E-01  1.478713E+01

 displacements (vx,vy,vz) for set SENSOR and time  0.7187500E-02

      7572 -3.222135E-01 -1.372429E-01  1.523519E+01

 displacements (vx,vy,vz) for set SENSOR and time  0.7226562E-02

      7572 -3.480165E-01 -1.485915E-01  1.535900E+01

 displacements (vx,vy,vz) for set SENSOR and time  0.7265625E-02

      7572 -3.266166E-01 -1.520348E-01  1.512842E+01

 displacements (vx,vy,vz) for set SENSOR and time  0.7304687E-02

      7572 -2.914119E-01 -1.445971E-01  1.455814E+01

 displacements (vx,vy,vz) for set SENSOR and time  0.7343750E-02

      7572 -2.867777E-01 -1.276439E-01  1.383695E+01

 displacements (vx,vy,vz) for set SENSOR and time  0.7382812E-02

      7572 -3.220831E-01 -1.074629E-01  1.331751E+01

 displacements (vx,vy,vz) for set SENSOR and time  0.7421875E-02

      7572 -3.693255E-01 -9.265612E-02  1.328680E+01

 displacements (vx,vy,vz) for set SENSOR and time  0.7460938E-02

      7572 -4.024502E-01 -8.950950E-02  1.374437E+01

 displacements (vx,vy,vz) for set SENSOR and time  0.7500000E-02

      7572 -4.243779E-01 -9.868551E-02  1.441703E+01

 displacements (vx,vy,vz) for set SENSOR and time  0.7539063E-02

      7572 -4.521216E-01 -1.158585E-01  1.495840E+01

 displacements (vx,vy,vz) for set SENSOR and time  0.7578125E-02

      7572 -4.891382E-01 -1.360723E-01  1.512676E+01

 displacements (vx,vy,vz) for set SENSOR and time  0.7617188E-02

      7572 -5.240323E-01 -1.581192E-01  1.483715E+01

 displacements (vx,vy,vz) for set SENSOR and time  0.7656250E-02

      7572 -5.512770E-01 -1.849552E-01  1.411452E+01

 displacements (vx,vy,vz) for set SENSOR and time  0.7695313E-02

      7572 -5.804929E-01 -2.207132E-01  1.300871E+01

 displacements (vx,vy,vz) for set SENSOR and time  0.7734375E-02

      7572 -6.221286E-01 -2.681400E-01  1.155451E+01

 displacements (vx,vy,vz) for set SENSOR and time  0.7773438E-02

      7572 -6.713287E-01 -3.269718E-01  9.843363E+00

 displacements (vx,vy,vz) for set SENSOR and time  0.7812500E-02

      7572 -7.114350E-01 -3.905881E-01  8.119198E+00

 displacements (vx,vy,vz) for set SENSOR and time  0.7851563E-02

      7572 -7.308079E-01 -4.437576E-01  6.697815E+00

 displacements (vx,vy,vz) for set SENSOR and time  0.7890625E-02

      7572 -7.315387E-01 -4.699482E-01  5.708245E+00

 displacements (vx,vy,vz) for set SENSOR and time  0.7929688E-02

      7572 -7.220144E-01 -4.671876E-01  4.965140E+00

 displacements (vx,vy,vz) for set SENSOR and time  0.7968750E-02

      7572 -7.054467E-01 -4.547993E-01  4.189547E+00

 displacements (vx,vy,vz) for set SENSOR and time  0.8007813E-02

      7572 -6.786415E-01 -4.572166E-01  3.330860E+00

 displacements (vx,vy,vz) for set SENSOR and time  0.8046875E-02

      7572 -6.405930E-01 -4.790588E-01  2.578140E+00

 displacements (vx,vy,vz) for set SENSOR and time  0.8085938E-02

      7572 -5.987725E-01 -5.013729E-01  2.077871E+00

 displacements (vx,vy,vz) for set SENSOR and time  0.8125000E-02

      7572 -5.651039E-01 -5.052718E-01  1.775155E+00

 displacements (vx,vy,vz) for set SENSOR and time  0.8164063E-02

      7572 -5.464291E-01 -4.940294E-01  1.566272E+00

 displacements (vx,vy,vz) for set SENSOR and time  0.8203125E-02

      7572 -5.397616E-01 -4.867425E-01  1.470492E+00

 displacements (vx,vy,vz) for set SENSOR and time  0.8242188E-02

      7572 -5.358274E-01 -4.944052E-01  1.546908E+00

 displacements (vx,vy,vz) for set SENSOR and time  0.8281250E-02

      7572 -5.256609E-01 -5.104024E-01  1.723322E+00

 displacements (vx,vy,vz) for set SENSOR and time  0.8320313E-02

      7572 -5.046762E-01 -5.241564E-01  1.837783E+00

 displacements (vx,vy,vz) for set SENSOR and time  0.8359375E-02

      7572 -4.738792E-01 -5.348908E-01  1.837381E+00

 displacements (vx,vy,vz) for set SENSOR and time  0.8398438E-02

      7572 -4.399069E-01 -5.469885E-01  1.839898E+00

 displacements (vx,vy,vz) for set SENSOR and time  0.8437500E-02

      7572 -4.134455E-01 -5.580333E-01  1.995209E+00

 displacements (vx,vy,vz) for set SENSOR and time  0.8476563E-02

      7572 -4.051152E-01 -5.597407E-01  2.359815E+00

 displacements (vx,vy,vz) for set SENSOR and time  0.8515625E-02

      7572 -4.202667E-01 -5.503188E-01  2.901117E+00

 displacements (vx,vy,vz) for set SENSOR and time  0.8554688E-02

      7572 -4.550208E-01 -5.399075E-01  3.527917E+00

 displacements (vx,vy,vz) for set SENSOR and time  0.8593750E-02

      7572 -4.947674E-01 -5.420868E-01  4.086573E+00

 displacements (vx,vy,vz) for set SENSOR and time  0.8632813E-02

      7572 -5.167916E-01 -5.630184E-01  4.414212E+00

 displacements (vx,vy,vz) for set SENSOR and time  0.8671875E-02

      7572 -4.993277E-01 -5.984917E-01  4.464077E+00

 displacements (vx,vy,vz) for set SENSOR and time  0.8710938E-02

      7572 -4.348181E-01 -6.359406E-01  4.346677E+00

 displacements (vx,vy,vz) for set SENSOR and time  0.8750000E-02

      7572 -3.379894E-01 -6.568796E-01  4.211415E+00

 displacements (vx,vy,vz) for set SENSOR and time  0.8789063E-02

      7572 -2.401892E-01 -6.434568E-01  4.124826E+00

 displacements (vx,vy,vz) for set SENSOR and time  0.8828125E-02

      7572 -1.728833E-01 -5.907590E-01  4.092179E+00

 displacements (vx,vy,vz) for set SENSOR and time  0.8867188E-02

      7572 -1.530247E-01 -5.140832E-01  4.135268E+00

 displacements (vx,vy,vz) for set SENSOR and time  0.8906250E-02

      7572 -1.798640E-01 -4.399019E-01  4.279575E+00

 displacements (vx,vy,vz) for set SENSOR and time  0.8945313E-02

      7572 -2.414828E-01 -3.869479E-01  4.498320E+00

 displacements (vx,vy,vz) for set SENSOR and time  0.8984375E-02

      7572 -3.228506E-01 -3.561768E-01  4.746183E+00

 displacements (vx,vy,vz) for set SENSOR and time  0.9023438E-02

      7572 -4.097455E-01 -3.373375E-01  5.043296E+00

 displacements (vx,vy,vz) for set SENSOR and time  0.9062500E-02

      7572 -4.886856E-01 -3.209460E-01  5.461840E+00

 displacements (vx,vy,vz) for set SENSOR and time  0.9101563E-02

      7572 -5.467101E-01 -3.027247E-01  6.027254E+00

 displacements (vx,vy,vz) for set SENSOR and time  0.9140625E-02

      7572 -5.747888E-01 -2.811365E-01  6.694310E+00

 displacements (vx,vy,vz) for set SENSOR and time  0.9179688E-02

      7572 -5.742341E-01 -2.556929E-01  7.432918E+00

 displacements (vx,vy,vz) for set SENSOR and time  0.9218750E-02

      7572 -5.595689E-01 -2.275586E-01  8.276125E+00

 displacements (vx,vy,vz) for set SENSOR and time  0.9257813E-02

      7572 -5.516710E-01 -1.990749E-01  9.251661E+00

 displacements (vx,vy,vz) for set SENSOR and time  0.9296875E-02

      7572 -5.645231E-01 -1.729653E-01  1.030687E+01

 displacements (vx,vy,vz) for set SENSOR and time  0.9335938E-02

      7572 -5.972024E-01 -1.544620E-01  1.132737E+01

 displacements (vx,vy,vz) for set SENSOR and time  0.9375000E-02

      7572 -6.380333E-01 -1.532415E-01  1.219189E+01

 displacements (vx,vy,vz) for set SENSOR and time  0.9414063E-02

      7572 -6.750322E-01 -1.781896E-01  1.278863E+01

 displacements (vx,vy,vz) for set SENSOR and time  0.9453125E-02

      7572 -7.022342E-01 -2.269963E-01  1.303944E+01

 displacements (vx,vy,vz) for set SENSOR and time  0.9492188E-02

      7572 -7.194557E-01 -2.831672E-01  1.297592E+01

 displacements (vx,vy,vz) for set SENSOR and time  0.9531250E-02

      7572 -7.303537E-01 -3.273898E-01  1.277810E+01

 displacements (vx,vy,vz) for set SENSOR and time  0.9570313E-02

      7572 -7.410159E-01 -3.527543E-01  1.268781E+01

 displacements (vx,vy,vz) for set SENSOR and time  0.9609375E-02

      7572 -7.566371E-01 -3.672174E-01  1.288163E+01

 displacements (vx,vy,vz) for set SENSOR and time  0.9648438E-02

      7572 -7.767584E-01 -3.812581E-01  1.344317E+01

 displacements (vx,vy,vz) for set SENSOR and time  0.9687500E-02

      7572 -7.946437E-01 -3.957873E-01  1.440528E+01

 displacements (vx,vy,vz) for set SENSOR and time  0.9726563E-02

      7572 -8.030342E-01 -4.037920E-01  1.573101E+01

 displacements (vx,vy,vz) for set SENSOR and time  0.9765625E-02

      7572 -7.999624E-01 -4.018646E-01  1.724664E+01