
 displacements (vx,vy,vz) for set SENSOR and time  0.3906250E-04

      7572  3.684923E-02 -3.756507E-02  1.676469E-01

 displacements (vx,vy,vz) for set SENSOR and time  0.7812500E-04

      7572  1.460491E-01 -1.476314E-01  4.522431E-01

 displacements (vx,vy,vz) for set SENSOR and time  0.1171875E-03

      7572  4.325800E-02 -3.999060E-02 -4.814514E-01

 displacements (vx,vy,vz) for set SENSOR and time  0.1562500E-03

      7572 -1.818748E-01  1.848906E-01 -7.899691E-01

 displacements (vx,vy,vz) for set SENSOR and time  0.1953125E-03

      7572 -2.052295E-01  1.937669E-01  1.232343E+00

 displacements (vx,vy,vz) for set SENSOR and time  0.2343750E-03

      7572  5.855527E-02 -7.893354E-02  3.090366E+00

 displacements (vx,vy,vz) for set SENSOR and time  0.2734375E-03

      7572  3.691961E-01 -3.633812E-01  1.556739E+00

 displacements (vx,vy,vz) for set SENSOR and time  0.3125000E-03

      7572  4.895848E-01 -4.349143E-01 -2.256974E+00

 displacements (vx,vy,vz) for set SENSOR and time  0.3515625E-03

      7572  4.311718E-01 -3.706176E-01 -5.000633E+00

 displacements (vx,vy,vz) for set SENSOR and time  0.3906250E-03

      7572  3.245896E-01 -3.517036E-01 -6.438308E+00

 displacements (vx,vy,vz) for set SENSOR and time  0.4296875E-03

      7572  1.945433E-01 -3.534431E-01 -8.717385E+00

 displacements (vx,vy,vz) for set SENSOR and time  0.4687500E-03

      7572 -2.121522E-02 -1.766530E-01 -1.144328E+01

 displacements (vx,vy,vz) for set SENSOR and time  0.5078125E-03

      7572 -3.090804E-01  2.517300E-01 -1.170488E+01

 displacements (vx,vy,vz) for set SENSOR and time  0.5468750E-03

      7572 -5.669117E-01  7.399322E-01 -8.818266E+00

 displacements (vx,vy,vz) for set SENSOR and time  0.5859375E-03

      7572 -7.364211E-01  1.027682E+00 -5.132078E+00

 displacements (vx,vy,vz) for set SENSOR and time  0.6250000E-03

      7572 -8.420606E-01  1.053249E+00 -1.799685E+00

 displacements (vx,vy,vz) for set SENSOR and time  0.6640625E-03

      7572 -8.965228E-01  9.788505E-01  2.467330E+00

 displacements (vx,vy,vz) for set SENSOR and time  0.7031250E-03

      7572 -8.701064E-01  9.760466E-01  7.637949E+00

 displacements (vx,vy,vz) for set SENSOR and time  0.7421875E-03

      7572 -7.803621E-01  1.029190E+00  1.114770E+01

 displacements (vx,vy,vz) for set SENSOR and time  0.7812500E-03

      7572 -7.151074E-01  9.701822E-01  1.204802E+01

 displacements (vx,vy,vz) for set SENSOR and time  0.8203125E-03

      7572 -7.103283E-01  7.029063E-01  1.301757E+01

 displacements (vx,vy,vz) for set SENSOR and time  0.8593750E-03

      7572 -6.840088E-01  3.607458E-01  1.607617E+01

 displacements (vx,vy,vz) for set SENSOR and time  0.8984375E-03

      7572 -5.671372E-01  1.908261E-01  1.917825E+01

 displacements (vx,vy,vz) for set SENSOR and time  0.9375000E-03

      7572 -4.369501E-01  2.714953E-01  1.967275E+01

 displacements (vx,vy,vz) for set SENSOR and time  0.9765625E-03

      7572 -4.160360E-01  4.069955E-01  1.869572E+01

 displacements (vx,vy,vz) for set SENSOR and time  0.1015625E-02

      7572 -4.692516E-01  3.586761E-01  1.898911E+01

 displacements (vx,vy,vz) for set SENSOR and time  0.1054688E-02

      7572 -4.259016E-01  1.365658E-01  2.014629E+01

 displacements (vx,vy,vz) for set SENSOR and time  0.1093750E-02

      7572 -2.296145E-01 -2.887025E-02  1.956390E+01

 displacements (vx,vy,vz) for set SENSOR and time  0.1132813E-02

      7572 -5.442523E-02  2.365550E-03  1.720719E+01

 displacements (vx,vy,vz) for set SENSOR and time  0.1171875E-02

      7572 -9.570112E-02  1.046034E-01  1.581370E+01

 displacements (vx,vy,vz) for set SENSOR and time  0.1210938E-02

      7572 -3.100385E-01  6.786760E-02  1.640277E+01

 displacements (vx,vy,vz) for set SENSOR and time  0.1250000E-02

      7572 -4.538126E-01 -1.344535E-01  1.698005E+01

 displacements (vx,vy,vz) for set SENSOR and time  0.1289063E-02

      7572 -3.619502E-01 -3.440959E-01  1.633341E+01

 displacements (vx,vy,vz) for set SENSOR and time  0.1328125E-02

      7572 -1.131439E-01 -4.326913E-01  1.597909E+01

 displacements (vx,vy,vz) for set SENSOR and time  0.1367188E-02

      7572  8.286038E-02 -4.177799E-01  1.705110E+01

 displacements (vx,vy,vz) for set SENSOR and time  0.1406250E-02

      7572  9.639059E-02 -3.776910E-01  1.797798E+01

 displacements (vx,vy,vz) for set SENSOR and time  0.1445313E-02

      7572 -3.866336E-02 -3.508377E-01  1.713879E+01

 displacements (vx,vy,vz) for set SENSOR and time  0.1484375E-02

      7572 -1.910313E-01 -3.412013E-01  1.577905E+01

 displacements (vx,vy,vz) for set SENSOR and time  0.1523438E-02

      7572 -2.419247E-01 -3.383572E-01  1.608118E+01

 displacements (vx,vy,vz) for set SENSOR and time  0.1562500E-02

      7572 -1.636872E-01 -2.888026E-01  1.764941E+01

 displacements (vx,vy,vz) for set SENSOR and time  0.1601563E-02

      7572 -3.350186E-02 -1.189142E-01  1.812863E+01

 displacements (vx,vy,vz) for set SENSOR and time  0.1640625E-02

      7572  3.807628E-02  1.499270E-01  1.661904E+01

 displacements (vx,vy,vz) for set SENSOR and time  0.1679688E-02

      7572  1.671523E-02  3.595914E-01  1.442851E+01

 displacements (vx,vy,vz) for set SENSOR and time  0.1718750E-02

      7572 -2.511185E-02  3.664215E-01  1.269787E+01

 displacements (vx,vy,vz) for set SENSOR and time  0.1757813E-02

      7572 -3.419184E-03  2.135248E-01  1.115274E+01

 displacements (vx,vy,vz) for set SENSOR and time  0.1796875E-02

      7572  6.999175E-02  7.893044E-02  9.369658E+00

 displacements (vx,vy,vz) for set SENSOR and time  0.1835937E-02

      7572  1.065427E-01  5.819817E-02  7.730279E+00

 displacements (vx,vy,vz) for set SENSOR and time  0.1875000E-02

      7572  5.874751E-02  7.506686E-02  6.666393E+00

 displacements (vx,vy,vz) for set SENSOR and time  0.1914062E-02

      7572 -1.890444E-02  2.209350E-02  6.012223E+00

 displacements (vx,vy,vz) for set SENSOR and time  0.1953125E-02

      7572 -3.648555E-02 -8.971034E-02  5.467398E+00

 displacements (vx,vy,vz) for set SENSOR and time  0.1992187E-02

      7572  3.460368E-02 -1.715534E-01  4.923652E+00

 displacements (vx,vy,vz) for set SENSOR and time  0.2031250E-02

      7572  1.500229E-01 -1.930462E-01  4.197742E+00

 displacements (vx,vy,vz) for set SENSOR and time  0.2070312E-02

      7572  2.515105E-01 -2.102635E-01  3.229153E+00

 displacements (vx,vy,vz) for set SENSOR and time  0.2109375E-02

      7572  3.033867E-01 -2.770594E-01  2.570394E+00

 displacements (vx,vy,vz) for set SENSOR and time  0.2148437E-02

      7572  2.788355E-01 -3.890819E-01  2.787765E+00

 displacements (vx,vy,vz) for set SENSOR and time  0.2187500E-02

      7572  1.548024E-01 -5.156619E-01  3.352516E+00

 displacements (vx,vy,vz) for set SENSOR and time  0.2226562E-02

      7572 -5.100227E-02 -6.324099E-01  3.174340E+00

 displacements (vx,vy,vz) for set SENSOR and time  0.2265625E-02

      7572 -2.571240E-01 -7.048027E-01  2.380007E+00

 displacements (vx,vy,vz) for set SENSOR and time  0.2304687E-02

      7572 -3.725243E-01 -6.846327E-01  2.384012E+00

 displacements (vx,vy,vz) for set SENSOR and time  0.2343750E-02

      7572 -3.861703E-01 -5.595633E-01  3.823063E+00

 displacements (vx,vy,vz) for set SENSOR and time  0.2382812E-02

      7572 -3.762158E-01 -3.888152E-01  5.657831E+00

 displacements (vx,vy,vz) for set SENSOR and time  0.2421875E-02

      7572 -4.058874E-01 -2.595462E-01  6.988274E+00

 displacements (vx,vy,vz) for set SENSOR and time  0.2460937E-02

      7572 -4.294245E-01 -2.128803E-01  8.541227E+00

 displacements (vx,vy,vz) for set SENSOR and time  0.2500000E-02

      7572 -3.440983E-01 -2.325069E-01  1.129029E+01

 displacements (vx,vy,vz) for set SENSOR and time  0.2539062E-02

      7572 -1.398167E-01 -2.942935E-01  1.453896E+01

 displacements (vx,vy,vz) for set SENSOR and time  0.2578125E-02

      7572  5.307702E-02 -3.903157E-01  1.669258E+01

 displacements (vx,vy,vz) for set SENSOR and time  0.2617187E-02

      7572  1.052590E-01 -4.931394E-01  1.739418E+01

 displacements (vx,vy,vz) for set SENSOR and time  0.2656250E-02

      7572  5.103604E-02 -5.331536E-01  1.757732E+01

 displacements (vx,vy,vz) for set SENSOR and time  0.2695312E-02

      7572  5.422966E-02 -4.559291E-01  1.770716E+01

 displacements (vx,vy,vz) for set SENSOR and time  0.2734375E-02

      7572  2.079558E-01 -3.026464E-01  1.735472E+01

 displacements (vx,vy,vz) for set SENSOR and time  0.2773437E-02

      7572  4.182746E-01 -1.915442E-01  1.652609E+01

 displacements (vx,vy,vz) for set SENSOR and time  0.2812500E-02

      7572  5.107435E-01 -1.907961E-01  1.605000E+01

 displacements (vx,vy,vz) for set SENSOR and time  0.2851562E-02

      7572  4.144712E-01 -2.339531E-01  1.625266E+01

 displacements (vx,vy,vz) for set SENSOR and time  0.2890625E-02

      7572  2.074982E-01 -2.031013E-01  1.631963E+01

 displacements (vx,vy,vz) for set SENSOR and time  0.2929687E-02

      7572  1.342359E-02 -8.699765E-02  1.544158E+01

 displacements (vx,vy,vz) for set SENSOR and time  0.2968750E-02

      7572 -9.447477E-02  2.858306E-04  1.367255E+01

 displacements (vx,vy,vz) for set SENSOR and time  0.3007812E-02

      7572 -1.010201E-01 -2.119608E-02  1.118357E+01

 displacements (vx,vy,vz) for set SENSOR and time  0.3046875E-02

      7572 -2.913072E-02 -7.749838E-02  7.680558E+00

 displacements (vx,vy,vz) for set SENSOR and time  0.3085937E-02

      7572  6.217711E-02 -3.961553E-02  3.374904E+00

 displacements (vx,vy,vz) for set SENSOR and time  0.3125000E-02

      7572  1.046010E-01  8.930808E-02 -2.508407E-01

 displacements (vx,vy,vz) for set SENSOR and time  0.3164062E-02

      7572  8.460194E-02  1.670331E-01 -1.680880E+00

 displacements (vx,vy,vz) for set SENSOR and time  0.3203125E-02

      7572  6.027213E-02  1.021498E-01 -1.025472E+00

 displacements (vx,vy,vz) for set SENSOR and time  0.3242187E-02

      7572  8.374376E-02 -2.636969E-02  3.848529E-01

 displacements (vx,vy,vz) for set SENSOR and time  0.3281250E-02

      7572  1.274777E-01 -8.236972E-02  1.739625E+00

 displacements (vx,vy,vz) for set SENSOR and time  0.3320312E-02

      7572  1.265725E-01 -4.474941E-02  3.202005E+00

 displacements (vx,vy,vz) for set SENSOR and time  0.3359375E-02

      7572  7.963530E-02  1.339501E-03  4.857533E+00

 displacements (vx,vy,vz) for set SENSOR and time  0.3398437E-02

      7572  5.322609E-02  1.054987E-02  6.259078E+00

 displacements (vx,vy,vz) for set SENSOR and time  0.3437500E-02

      7572  7.597488E-02  2.857500E-02  7.155676E+00

 displacements (vx,vy,vz) for set SENSOR and time  0.3476562E-02

      7572  8.291178E-02  9.162435E-02  7.785156E+00

 displacements (vx,vy,vz) for set SENSOR and time  0.3515625E-02

      7572  5.135621E-03  1.530603E-01  8.140840E+00

 displacements (vx,vy,vz) for set SENSOR and time  0.3554687E-02

      7572 -1.180738E-01  1.504146E-01  7.699735E+00

 displacements (vx,vy,vz) for set SENSOR and time  0.3593750E-02

      7572 -1.722696E-01  9.640640E-02  6.293387E+00

 displacements (vx,vy,vz) for set SENSOR and time  0.3632812E-02

      7572 -1.117571E-01  5.557907E-02  4.627490E+00

 displacements (vx,vy,vz) for set SENSOR and time  0.3671875E-02

      7572 -2.211337E-02  5.881844E-02  3.443601E+00

 displacements (vx,vy,vz) for set SENSOR and time  0.3710937E-02

      7572 -1.842847E-02  8.870928E-02  2.660655E+00

 displacements (vx,vy,vz) for set SENSOR and time  0.3750000E-02

      7572 -1.131160E-01  1.344157E-01  1.883901E+00

 displacements (vx,vy,vz) for set SENSOR and time  0.3789062E-02

      7572 -2.141256E-01  2.101434E-01  1.334154E+00

 displacements (vx,vy,vz) for set SENSOR and time  0.3828125E-02

      7572 -2.360044E-01  3.136576E-01  1.587357E+00

 displacements (vx,vy,vz) for set SENSOR and time  0.3867187E-02

      7572 -1.774240E-01  4.062270E-01  2.595299E+00

 displacements (vx,vy,vz) for set SENSOR and time  0.3906250E-02

      7572 -9.127221E-02  4.501539E-01  3.654152E+00

 displacements (vx,vy,vz) for set SENSOR and time  0.3945312E-02

      7572 -1.591448E-02  4.426568E-01  4.343593E+00

 displacements (vx,vy,vz) for set SENSOR and time  0.3984375E-02

      7572  4.251957E-02  4.014654E-01  4.876829E+00

 displacements (vx,vy,vz) for set SENSOR and time  0.4023437E-02

      7572  8.059481E-02  3.407693E-01  5.385024E+00

 displacements (vx,vy,vz) for set SENSOR and time  0.4062500E-02

      7572  8.305348E-02  2.778274E-01  5.445192E+00

 displacements (vx,vy,vz) for set SENSOR and time  0.4101562E-02

      7572  4.392613E-02  2.431697E-01  4.697281E+00

 displacements (vx,vy,vz) for set SENSOR and time  0.4140625E-02

      7572 -1.466758E-02  2.587339E-01  3.585156E+00

 displacements (vx,vy,vz) for set SENSOR and time  0.4179687E-02

      7572 -5.550082E-02  3.094422E-01  3.036406E+00

 displacements (vx,vy,vz) for set SENSOR and time  0.4218750E-02

      7572 -5.322347E-02  3.541097E-01  3.468043E+00

 displacements (vx,vy,vz) for set SENSOR and time  0.4257812E-02

      7572 -5.338245E-03  3.667736E-01  4.406220E+00

 displacements (vx,vy,vz) for set SENSOR and time  0.4296875E-02

      7572  7.403480E-02  3.570015E-01  5.101282E+00

 displacements (vx,vy,vz) for set SENSOR and time  0.4335937E-02

      7572  1.617046E-01  3.455425E-01  5.294923E+00

 displacements (vx,vy,vz) for set SENSOR and time  0.4375000E-02

      7572  2.320530E-01  3.249207E-01  5.298953E+00

 displacements (vx,vy,vz) for set SENSOR and time  0.4414062E-02

      7572  2.692360E-01  2.518781E-01  5.470409E+00

 displacements (vx,vy,vz) for set SENSOR and time  0.4453125E-02

      7572  2.759996E-01  8.937440E-02  5.787054E+00

 displacements (vx,vy,vz) for set SENSOR and time  0.4492187E-02

      7572  2.634287E-01 -1.376860E-01  5.960015E+00

 displacements (vx,vy,vz) for set SENSOR and time  0.4531250E-02

      7572  2.306113E-01 -3.406439E-01  5.802428E+00

 displacements (vx,vy,vz) for set SENSOR and time  0.4570312E-02

      7572  1.627563E-01 -4.418241E-01  5.292000E+00

 displacements (vx,vy,vz) for set SENSOR and time  0.4609375E-02

      7572  5.231040E-02 -4.501654E-01  4.304368E+00

 displacements (vx,vy,vz) for set SENSOR and time  0.4648437E-02

      7572 -8.730641E-02 -4.395062E-01  2.600277E+00

 displacements (vx,vy,vz) for set SENSOR and time  0.4687500E-02

      7572 -2.331105E-01 -4.486492E-01  2.980003E-01

 displacements (vx,vy,vz) for set SENSOR and time  0.4726562E-02

      7572 -3.643756E-01 -4.348297E-01 -1.856568E+00

 displacements (vx,vy,vz) for set SENSOR and time  0.4765625E-02

      7572 -4.523711E-01 -3.444413E-01 -3.062647E+00

 displacements (vx,vy,vz) for set SENSOR and time  0.4804687E-02

      7572 -4.554869E-01 -1.976892E-01 -3.298248E+00

 displacements (vx,vy,vz) for set SENSOR and time  0.4843750E-02

      7572 -3.546329E-01 -6.605654E-02 -3.275832E+00

 displacements (vx,vy,vz) for set SENSOR and time  0.4882812E-02

      7572 -1.948278E-01  1.501846E-02 -3.556650E+00

 displacements (vx,vy,vz) for set SENSOR and time  0.4921875E-02

      7572 -5.906306E-02  6.352787E-02 -4.066516E+00

 displacements (vx,vy,vz) for set SENSOR and time  0.4960937E-02

      7572  1.988512E-02  8.398875E-02 -4.571017E+00

 displacements (vx,vy,vz) for set SENSOR and time  0.5000000E-02

      7572  1.004218E-01  3.648107E-02 -5.170272E+00

 displacements (vx,vy,vz) for set SENSOR and time  0.5039062E-02

      7572  2.560003E-01 -1.042081E-01 -5.985250E+00

 displacements (vx,vy,vz) for set SENSOR and time  0.5078125E-02

      7572  4.679667E-01 -2.949168E-01 -6.678728E+00

 displacements (vx,vy,vz) for set SENSOR and time  0.5117187E-02

      7572  6.291683E-01 -4.592722E-01 -6.766263E+00

 displacements (vx,vy,vz) for set SENSOR and time  0.5156250E-02

      7572  6.601300E-01 -5.534066E-01 -6.306031E+00

 displacements (vx,vy,vz) for set SENSOR and time  0.5195312E-02

      7572  5.902414E-01 -5.718857E-01 -5.863190E+00

 displacements (vx,vy,vz) for set SENSOR and time  0.5234375E-02

      7572  5.069045E-01 -5.169275E-01 -5.810773E+00

 displacements (vx,vy,vz) for set SENSOR and time  0.5273437E-02

      7572  4.516295E-01 -4.037665E-01 -6.061524E+00

 displacements (vx,vy,vz) for set SENSOR and time  0.5312500E-02

      7572  3.961185E-01 -2.837366E-01 -6.506004E+00

 displacements (vx,vy,vz) for set SENSOR and time  0.5351562E-02

      7572  3.048704E-01 -2.149740E-01 -7.240498E+00

 displacements (vx,vy,vz) for set SENSOR and time  0.5390625E-02

      7572  1.818147E-01 -2.026912E-01 -8.154045E+00

 displacements (vx,vy,vz) for set SENSOR and time  0.5429687E-02

      7572  5.088589E-02 -2.020918E-01 -8.687713E+00

 displacements (vx,vy,vz) for set SENSOR and time  0.5468750E-02

      7572 -7.446270E-02 -1.871236E-01 -8.356755E+00

 displacements (vx,vy,vz) for set SENSOR and time  0.5507812E-02

      7572 -1.832391E-01 -1.804010E-01 -7.298527E+00

 displacements (vx,vy,vz) for set SENSOR and time  0.5546875E-02

      7572 -2.521648E-01 -2.003884E-01 -5.981727E+00

 displacements (vx,vy,vz) for set SENSOR and time  0.5585937E-02

      7572 -2.659751E-01 -2.160087E-01 -4.546469E+00

 displacements (vx,vy,vz) for set SENSOR and time  0.5625000E-02

      7572 -2.439705E-01 -1.850535E-01 -2.815455E+00

 displacements (vx,vy,vz) for set SENSOR and time  0.5664062E-02

      7572 -2.226459E-01 -1.161248E-01 -8.935104E-01

 displacements (vx,vy,vz) for set SENSOR and time  0.5703125E-02

      7572 -2.133364E-01 -5.902322E-02  6.702441E-01

 displacements (vx,vy,vz) for set SENSOR and time  0.5742187E-02

      7572 -1.983283E-01 -4.373234E-02  1.448651E+00

 displacements (vx,vy,vz) for set SENSOR and time  0.5781250E-02

      7572 -1.719557E-01 -5.932769E-02  1.579117E+00

 displacements (vx,vy,vz) for set SENSOR and time  0.5820312E-02

      7572 -1.632219E-01 -8.813949E-02  1.481023E+00

 displacements (vx,vy,vz) for set SENSOR and time  0.5859375E-02

      7572 -2.032510E-01 -1.285412E-01  1.350452E+00

 displacements (vx,vy,vz) for set SENSOR and time  0.5898437E-02

      7572 -2.825349E-01 -1.782124E-01  1.128491E+00

 displacements (vx,vy,vz) for set SENSOR and time  0.5937500E-02

      7572 -3.568347E-01 -2.208447E-01  8.072955E-01

 displacements (vx,vy,vz) for set SENSOR and time  0.5976562E-02

      7572 -3.917033E-01 -2.414753E-01  5.102954E-01

 displacements (vx,vy,vz) for set SENSOR and time  0.6015625E-02

      7572 -3.878345E-01 -2.402326E-01  2.868093E-01

 displacements (vx,vy,vz) for set SENSOR and time  0.6054687E-02

      7572 -3.634822E-01 -2.253649E-01  1.506775E-02

 displacements (vx,vy,vz) for set SENSOR and time  0.6093750E-02

      7572 -3.266172E-01 -2.083715E-01 -4.582093E-01

 displacements (vx,vy,vz) for set SENSOR and time  0.6132812E-02

      7572 -2.719357E-01 -2.086136E-01 -1.205490E+00

 displacements (vx,vy,vz) for set SENSOR and time  0.6171875E-02

      7572 -1.974137E-01 -2.394827E-01 -2.265734E+00

 displacements (vx,vy,vz) for set SENSOR and time  0.6210937E-02

      7572 -1.136996E-01 -2.790324E-01 -3.656904E+00

 displacements (vx,vy,vz) for set SENSOR and time  0.6250000E-02

      7572 -3.715398E-02 -2.770456E-01 -5.231881E+00

 displacements (vx,vy,vz) for set SENSOR and time  0.6289062E-02

      7572  2.006126E-02 -2.103808E-01 -6.590933E+00

 displacements (vx,vy,vz) for set SENSOR and time  0.6328125E-02

      7572  5.081527E-02 -1.149141E-01 -7.289675E+00

 displacements (vx,vy,vz) for set SENSOR and time  0.6367187E-02

      7572  4.927011E-02 -4.173791E-02 -7.202584E+00

 displacements (vx,vy,vz) for set SENSOR and time  0.6406250E-02

      7572  1.381363E-02  3.533092E-03 -6.626439E+00

 displacements (vx,vy,vz) for set SENSOR and time  0.6445312E-02

      7572 -4.364244E-02  5.159408E-02 -5.952647E+00

 displacements (vx,vy,vz) for set SENSOR and time  0.6484375E-02

      7572 -9.625401E-02  1.112534E-01 -5.267797E+00

 displacements (vx,vy,vz) for set SENSOR and time  0.6523437E-02

      7572 -1.181249E-01  1.566416E-01 -4.384846E+00

 displacements (vx,vy,vz) for set SENSOR and time  0.6562500E-02

      7572 -1.048193E-01  1.761768E-01 -3.276007E+00

 displacements (vx,vy,vz) for set SENSOR and time  0.6601562E-02

      7572 -7.502141E-02  1.987230E-01 -2.294710E+00

 displacements (vx,vy,vz) for set SENSOR and time  0.6640625E-02

      7572 -4.956719E-02  2.518647E-01 -1.799524E+00

 displacements (vx,vy,vz) for set SENSOR and time  0.6679687E-02

      7572 -3.189806E-02  3.185794E-01 -1.649755E+00

 displacements (vx,vy,vz) for set SENSOR and time  0.6718750E-02

      7572 -1.181820E-02  3.602734E-01 -1.321451E+00

 displacements (vx,vy,vz) for set SENSOR and time  0.6757812E-02

      7572  1.571017E-02  3.684257E-01 -5.596742E-01

 displacements (vx,vy,vz) for set SENSOR and time  0.6796875E-02

      7572  4.152595E-02  3.659070E-01  3.254241E-01

 displacements (vx,vy,vz) for set SENSOR and time  0.6835937E-02

      7572  5.091351E-02  3.610021E-01  9.443803E-01

 displacements (vx,vy,vz) for set SENSOR and time  0.6875000E-02

      7572  3.636281E-02  3.265022E-01  1.396106E+00

 displacements (vx,vy,vz) for set SENSOR and time  0.6914062E-02

      7572  2.833172E-03  2.322923E-01  2.109623E+00

 displacements (vx,vy,vz) for set SENSOR and time  0.6953125E-02

      7572 -3.396162E-02  8.355344E-02  3.226147E+00

 displacements (vx,vy,vz) for set SENSOR and time  0.6992187E-02

      7572 -5.531889E-02 -8.013480E-02  4.411345E+00

 displacements (vx,vy,vz) for set SENSOR and time  0.7031250E-02

      7572 -5.387871E-02 -2.128389E-01  5.276998E+00

 displacements (vx,vy,vz) for set SENSOR and time  0.7070312E-02

      7572 -4.349252E-02 -2.859399E-01  5.733743E+00

 displacements (vx,vy,vz) for set SENSOR and time  0.7109375E-02

      7572 -4.821950E-02 -2.989720E-01  5.865008E+00

 displacements (vx,vy,vz) for set SENSOR and time  0.7148437E-02

      7572 -7.641802E-02 -2.788670E-01  5.696802E+00

 displacements (vx,vy,vz) for set SENSOR and time  0.7187500E-02

      7572 -1.098472E-01 -2.612291E-01  5.243354E+00

 displacements (vx,vy,vz) for set SENSOR and time  0.7226562E-02

      7572 -1.221435E-01 -2.604894E-01  4.610583E+00

 displacements (vx,vy,vz) for set SENSOR and time  0.7265625E-02

      7572 -1.028427E-01 -2.588768E-01  3.876048E+00

 displacements (vx,vy,vz) for set SENSOR and time  0.7304687E-02

      7572 -5.925201E-02 -2.297166E-01  2.972185E+00

 displacements (vx,vy,vz) for set SENSOR and time  0.7343750E-02

      7572 -3.946051E-03 -1.678501E-01  1.859692E+00

 displacements (vx,vy,vz) for set SENSOR and time  0.7382812E-02

      7572  4.797468E-02 -9.126199E-02  7.396001E-01

 displacements (vx,vy,vz) for set SENSOR and time  0.7421875E-02

      7572  7.508907E-02 -1.769002E-02 -8.410469E-02

 displacements (vx,vy,vz) for set SENSOR and time  0.7460938E-02

      7572  6.134678E-02  5.004673E-02 -5.052961E-01

 displacements (vx,vy,vz) for set SENSOR and time  0.7500000E-02

      7572  1.703946E-02  1.149919E-01 -6.029583E-01

 displacements (vx,vy,vz) for set SENSOR and time  0.7539063E-02

      7572 -2.485574E-02  1.715133E-01 -3.725225E-01

 displacements (vx,vy,vz) for set SENSOR and time  0.7578125E-02

      7572 -4.213250E-02  2.054966E-01  2.926561E-01

 displacements (vx,vy,vz) for set SENSOR and time  0.7617188E-02

      7572 -4.457538E-02  2.070661E-01  1.298146E+00

 displacements (vx,vy,vz) for set SENSOR and time  0.7656250E-02

      7572 -5.351470E-02  1.805230E-01  2.241582E+00

 displacements (vx,vy,vz) for set SENSOR and time  0.7695313E-02

      7572 -7.012719E-02  1.415755E-01  2.745094E+00

 displacements (vx,vy,vz) for set SENSOR and time  0.7734375E-02

      7572 -7.808791E-02  1.037829E-01  2.770651E+00

 displacements (vx,vy,vz) for set SENSOR and time  0.7773438E-02

      7572 -7.169597E-02  6.636202E-02  2.491330E+00

 displacements (vx,vy,vz) for set SENSOR and time  0.7812500E-02

      7572 -6.210988E-02  1.724339E-02  1.979637E+00

 displacements (vx,vy,vz) for set SENSOR and time  0.7851563E-02

      7572 -5.248363E-02 -4.952286E-02  1.193640E+00

 displacements (vx,vy,vz) for set SENSOR and time  0.7890625E-02

      7572 -2.521769E-02 -1.222347E-01  2.030359E-01

 displacements (vx,vy,vz) for set SENSOR and time  0.7929688E-02

      7572  3.412012E-02 -1.814415E-01 -7.632140E-01

 displacements (vx,vy,vz) for set SENSOR and time  0.7968750E-02

      7572  1.120408E-01 -2.183388E-01 -1.515331E+00

 displacements (vx,vy,vz) for set SENSOR and time  0.8007813E-02

      7572  1.820919E-01 -2.366429E-01 -2.018591E+00

 displacements (vx,vy,vz) for set SENSOR and time  0.8046875E-02

      7572  2.393765E-01 -2.381441E-01 -2.285349E+00

 displacements (vx,vy,vz) for set SENSOR and time  0.8085938E-02

      7572  3.025017E-01 -2.171178E-01 -2.267323E+00

 displacements (vx,vy,vz) for set SENSOR and time  0.8125000E-02

      7572  3.781680E-01 -1.735928E-01 -1.905234E+00

 displacements (vx,vy,vz) for set SENSOR and time  0.8164063E-02

      7572  4.394400E-01 -1.239424E-01 -1.201899E+00

 displacements (vx,vy,vz) for set SENSOR and time  0.8203125E-02

      7572  4.502313E-01 -9.028098E-02 -1.955812E-01

 displacements (vx,vy,vz) for set SENSOR and time  0.8242188E-02

      7572  4.042760E-01 -8.273703E-02  1.073115E+00

 displacements (vx,vy,vz) for set SENSOR and time  0.8281250E-02

      7572  3.294163E-01 -9.821877E-02  2.518711E+00

 displacements (vx,vy,vz) for set SENSOR and time  0.8320313E-02

      7572  2.572350E-01 -1.321341E-01  3.993934E+00

 displacements (vx,vy,vz) for set SENSOR and time  0.8359375E-02

      7572  2.002546E-01 -1.813669E-01  5.376555E+00

 displacements (vx,vy,vz) for set SENSOR and time  0.8398438E-02

      7572  1.595552E-01 -2.354359E-01  6.646748E+00

 displacements (vx,vy,vz) for set SENSOR and time  0.8437500E-02

      7572  1.410440E-01 -2.744048E-01  7.845419E+00

 displacements (vx,vy,vz) for set SENSOR and time  0.8476563E-02

      7572  1.526783E-01 -2.811763E-01  8.998323E+00

 displacements (vx,vy,vz) for set SENSOR and time  0.8515625E-02

      7572  1.883387E-01 -2.528537E-01  1.012411E+01

 displacements (vx,vy,vz) for set SENSOR and time  0.8554688E-02

      7572  2.241456E-01 -1.987641E-01  1.127301E+01

 displacements (vx,vy,vz) for set SENSOR and time  0.8593750E-02

      7572  2.344180E-01 -1.331955E-01  1.248923E+01

 displacements (vx,vy,vz) for set SENSOR and time  0.8632813E-02

      7572  2.085472E-01 -7.345765E-02  1.373738E+01

 displacements (vx,vy,vz) for set SENSOR and time  0.8671875E-02

      7572  1.524596E-01 -3.809421E-02  1.490041E+01

 displacements (vx,vy,vz) for set SENSOR and time  0.8710938E-02

      7572  7.998677E-02 -3.751891E-02  1.583935E+01

 displacements (vx,vy,vz) for set SENSOR and time  0.8750000E-02

      7572  7.322209E-03 -6.559211E-02  1.643834E+01

 displacements (vx,vy,vz) for set SENSOR and time  0.8789063E-02

      7572 -4.886043E-02 -1.056032E-01  1.663910E+01

 displacements (vx,vy,vz) for set SENSOR and time  0.8828125E-02

      7572 -7.751106E-02 -1.454994E-01  1.648793E+01

 displacements (vx,vy,vz) for set SENSOR and time  0.8867188E-02

      7572 -8.136584E-02 -1.833916E-01  1.612091E+01

 displacements (vx,vy,vz) for set SENSOR and time  0.8906250E-02

      7572 -7.447270E-02 -2.181344E-01  1.563694E+01

 displacements (vx,vy,vz) for set SENSOR and time  0.8945313E-02

      7572 -6.627152E-02 -2.410098E-01  1.499464E+01

 displacements (vx,vy,vz) for set SENSOR and time  0.8984375E-02

      7572 -4.895541E-02 -2.419348E-01  1.409243E+01

 displacements (vx,vy,vz) for set SENSOR and time  0.9023438E-02

      7572 -5.225843E-03 -2.220515E-01  1.293682E+01

 displacements (vx,vy,vz) for set SENSOR and time  0.9062500E-02

      7572  6.960218E-02 -1.952881E-01  1.165965E+01

 displacements (vx,vy,vz) for set SENSOR and time  0.9101563E-02

      7572  1.554043E-01 -1.759366E-01  1.037198E+01

 displacements (vx,vy,vz) for set SENSOR and time  0.9140625E-02

      7572  2.192615E-01 -1.666207E-01  9.091206E+00

 displacements (vx,vy,vz) for set SENSOR and time  0.9179688E-02

      7572  2.400998E-01 -1.597071E-01  7.839538E+00

 displacements (vx,vy,vz) for set SENSOR and time  0.9218750E-02

      7572  2.224094E-01 -1.489725E-01  6.721692E+00

 displacements (vx,vy,vz) for set SENSOR and time  0.9257813E-02

      7572  1.879657E-01 -1.371903E-01  5.831743E+00

 displacements (vx,vy,vz) for set SENSOR and time  0.9296875E-02

      7572  1.552628E-01 -1.312231E-01  5.134620E+00

 displacements (vx,vy,vz) for set SENSOR and time  0.9335938E-02

      7572  1.257191E-01 -1.316428E-01  4.517543E+00

 displacements (vx,vy,vz) for set SENSOR and time  0.9375000E-02

      7572  8.801963E-02 -1.304818E-01  3.940872E+00

 displacements (vx,vy,vz) for set SENSOR and time  0.9414063E-02

      7572  3.493618E-02 -1.198604E-01  3.481750E+00

 displacements (vx,vy,vz) for set SENSOR and time  0.9453125E-02

      7572 -2.523040E-02 -9.939904E-02  3.247943E+00

 displacements (vx,vy,vz) for set SENSOR and time  0.9492188E-02

      7572 -7.526412E-02 -7.219993E-02  3.304116E+00

 displacements (vx,vy,vz) for set SENSOR and time  0.9531250E-02

      7572 -1.064066E-01 -3.655022E-02  3.659801E+00

 displacements (vx,vy,vz) for set SENSOR and time  0.9570313E-02

      7572 -1.259483E-01  1.175643E-02  4.250631E+00

 displacements (vx,vy,vz) for set SENSOR and time  0.9609375E-02

      7572 -1.458722E-01  6.708646E-02  4.919263E+00

 displacements (vx,vy,vz) for set SENSOR and time  0.9648438E-02

      7572 -1.670469E-01  1.097200E-01  5.479695E+00

 displacements (vx,vy,vz) for set SENSOR and time  0.9687500E-02

      7572 -1.786719E-01  1.199312E-01  5.832403E+00

 displacements (vx,vy,vz) for set SENSOR and time  0.9726563E-02

      7572 -1.721305E-01  9.611749E-02  5.986388E+00

 displacements (vx,vy,vz) for set SENSOR and time  0.9765625E-02

      7572 -1.503662E-01  5.601168E-02  5.967882E+00