
 displacements (vx,vy,vz) for set SENSOR and time  0.3906250E-04

      7572 -6.892750E-03 -5.324609E-03 -5.528838E-02

 displacements (vx,vy,vz) for set SENSOR and time  0.7812500E-04

      7572 -1.827139E-02 -1.238704E-02 -1.085582E-01

 displacements (vx,vy,vz) for set SENSOR and time  0.1171875E-03

      7572  1.446463E-02  1.161388E-02  1.236586E-01

 displacements (vx,vy,vz) for set SENSOR and time  0.1562500E-03

      7572  1.281458E-02  3.683659E-03 -2.968891E-02

 displacements (vx,vy,vz) for set SENSOR and time  0.1953125E-03

      7572 -3.270252E-02 -1.888195E-02 -1.134929E-01

 displacements (vx,vy,vz) for set SENSOR and time  0.2343750E-03

      7572  4.884424E-03  1.141769E-02  2.003480E-01

 displacements (vx,vy,vz) for set SENSOR and time  0.2734375E-03

      7572  5.490704E-02  1.823800E-02 -8.761423E-02

 displacements (vx,vy,vz) for set SENSOR and time  0.3125000E-03

      7572 -4.983351E-02 -3.142439E-02 -3.380734E-01

 displacements (vx,vy,vz) for set SENSOR and time  0.3515625E-03

      7572 -1.033425E-01 -1.647710E-02  4.538847E-01

 displacements (vx,vy,vz) for set SENSOR and time  0.3906250E-03

      7572  8.957845E-02  3.726117E-02  6.444207E-01

 displacements (vx,vy,vz) for set SENSOR and time  0.4296875E-03

      7572  1.927451E-01  1.722433E-02 -4.609240E-01

 displacements (vx,vy,vz) for set SENSOR and time  0.4687500E-03

      7572  2.768618E-02  2.322031E-02 -9.536136E-01

 displacements (vx,vy,vz) for set SENSOR and time  0.5078125E-03

      7572 -5.366612E-02  7.498492E-02 -7.273919E-01

 displacements (vx,vy,vz) for set SENSOR and time  0.5468750E-03

      7572 -5.198656E-02 -3.773861E-02 -1.047860E+00

 displacements (vx,vy,vz) for set SENSOR and time  0.5859375E-03

      7572 -3.024325E-01 -2.315543E-01 -7.146911E-01

 displacements (vx,vy,vz) for set SENSOR and time  0.6250000E-03

      7572 -5.127601E-01 -1.852104E-01  1.634912E+00

 displacements (vx,vy,vz) for set SENSOR and time  0.6640625E-03

      7572 -2.194141E-01  2.798134E-02  4.124382E+00

 displacements (vx,vy,vz) for set SENSOR and time  0.7031250E-03

      7572  2.556890E-01  1.129506E-01  4.186053E+00

 displacements (vx,vy,vz) for set SENSOR and time  0.7421875E-03

      7572  4.109733E-01  6.285193E-02  2.079252E+00

 displacements (vx,vy,vz) for set SENSOR and time  0.7812500E-03

      7572  3.257845E-01  2.255973E-02 -4.725041E-02

 displacements (vx,vy,vz) for set SENSOR and time  0.8203125E-03

      7572  2.339528E-01  7.938676E-02 -1.170221E+00

 displacements (vx,vy,vz) for set SENSOR and time  0.8593750E-03

      7572  1.569637E-01  2.272520E-01 -1.727489E+00

 displacements (vx,vy,vz) for set SENSOR and time  0.8984375E-03

      7572  9.490919E-02  2.860723E-01 -1.755882E+00

 displacements (vx,vy,vz) for set SENSOR and time  0.9375000E-03

      7572  8.113678E-02  1.709429E-01 -1.186653E+00

 displacements (vx,vy,vz) for set SENSOR and time  0.9765625E-03

      7572  1.289676E-01  7.256168E-02 -1.036033E+00

 displacements (vx,vy,vz) for set SENSOR and time  0.1015625E-02

      7572  2.012825E-01  1.896540E-02 -1.808719E+00

 displacements (vx,vy,vz) for set SENSOR and time  0.1054688E-02

      7572  1.862393E-01 -1.275758E-01 -2.516884E+00

 displacements (vx,vy,vz) for set SENSOR and time  0.1093750E-02

      7572  7.522762E-02 -1.930838E-01 -2.528805E+00

 displacements (vx,vy,vz) for set SENSOR and time  0.1132813E-02

      7572  1.556678E-02 -4.286761E-02 -2.060728E+00

 displacements (vx,vy,vz) for set SENSOR and time  0.1171875E-02

      7572  3.904104E-02  1.741260E-02 -1.348518E+00

 displacements (vx,vy,vz) for set SENSOR and time  0.1210938E-02

      7572  6.218219E-02 -1.343527E-01 -9.024217E-01

 displacements (vx,vy,vz) for set SENSOR and time  0.1250000E-02

      7572  1.049979E-01 -2.249454E-01 -9.891237E-01

 displacements (vx,vy,vz) for set SENSOR and time  0.1289063E-02

      7572  1.876569E-01 -2.297731E-01 -1.253789E+00

 displacements (vx,vy,vz) for set SENSOR and time  0.1328125E-02

      7572  2.453682E-01 -3.094343E-01 -2.079828E+00

 displacements (vx,vy,vz) for set SENSOR and time  0.1367188E-02

      7572  2.677536E-01 -3.472303E-01 -3.894585E+00

 displacements (vx,vy,vz) for set SENSOR and time  0.1406250E-02

      7572  2.467451E-01 -2.418348E-01 -5.458753E+00

 displacements (vx,vy,vz) for set SENSOR and time  0.1445313E-02

      7572  1.261582E-01 -1.301054E-01 -5.887985E+00

 displacements (vx,vy,vz) for set SENSOR and time  0.1484375E-02

      7572 -3.479280E-02 -5.149093E-02 -6.063298E+00

 displacements (vx,vy,vz) for set SENSOR and time  0.1523438E-02

      7572 -1.303647E-01  6.777755E-02 -6.157866E+00

 displacements (vx,vy,vz) for set SENSOR and time  0.1562500E-02

      7572 -1.984431E-01  2.093997E-01 -5.478211E+00

 displacements (vx,vy,vz) for set SENSOR and time  0.1601563E-02

      7572 -2.792458E-01  3.478224E-01 -4.725059E+00

 displacements (vx,vy,vz) for set SENSOR and time  0.1640625E-02

      7572 -2.890371E-01  4.453715E-01 -4.766257E+00

 displacements (vx,vy,vz) for set SENSOR and time  0.1679688E-02

      7572 -2.071656E-01  3.958659E-01 -4.737057E+00

 displacements (vx,vy,vz) for set SENSOR and time  0.1718750E-02

      7572 -1.734849E-01  2.463573E-01 -3.649109E+00

 displacements (vx,vy,vz) for set SENSOR and time  0.1757813E-02

      7572 -2.959565E-01  1.903835E-01 -1.851171E+00

 displacements (vx,vy,vz) for set SENSOR and time  0.1796875E-02

      7572 -4.746968E-01  2.287386E-01 -2.678694E-01

 displacements (vx,vy,vz) for set SENSOR and time  0.1835937E-02

      7572 -5.236357E-01  2.143930E-01  3.830774E-01

 displacements (vx,vy,vz) for set SENSOR and time  0.1875000E-02

      7572 -4.313897E-01  1.613134E-01  1.280188E-01

 displacements (vx,vy,vz) for set SENSOR and time  0.1914062E-02

      7572 -3.304670E-01  1.645898E-01 -5.224633E-02

 displacements (vx,vy,vz) for set SENSOR and time  0.1953125E-02

      7572 -2.726141E-01  1.849605E-01  6.318502E-01

 displacements (vx,vy,vz) for set SENSOR and time  0.1992187E-02

      7572 -2.495075E-01  1.436642E-01  1.696232E+00

 displacements (vx,vy,vz) for set SENSOR and time  0.2031250E-02

      7572 -2.725910E-01  5.870202E-02  2.242405E+00

 displacements (vx,vy,vz) for set SENSOR and time  0.2070312E-02

      7572 -2.945293E-01 -1.357869E-02  2.454732E+00

 displacements (vx,vy,vz) for set SENSOR and time  0.2109375E-02

      7572 -2.823921E-01 -4.485506E-02  3.198382E+00

 displacements (vx,vy,vz) for set SENSOR and time  0.2148437E-02

      7572 -3.006709E-01 -3.003735E-02  4.306038E+00

 displacements (vx,vy,vz) for set SENSOR and time  0.2187500E-02

      7572 -3.317150E-01  1.581078E-02  4.764929E+00

 displacements (vx,vy,vz) for set SENSOR and time  0.2226562E-02

      7572 -2.856389E-01  6.563189E-02  4.476245E+00

 displacements (vx,vy,vz) for set SENSOR and time  0.2265625E-02

      7572 -2.046607E-01  8.344613E-02  4.010239E+00

 displacements (vx,vy,vz) for set SENSOR and time  0.2304687E-02

      7572 -1.335874E-01  3.073447E-02  3.308303E+00

 displacements (vx,vy,vz) for set SENSOR and time  0.2343750E-02

      7572 -1.799151E-02 -6.249857E-02  2.371367E+00

 displacements (vx,vy,vz) for set SENSOR and time  0.2382812E-02

      7572  7.541885E-02 -8.758315E-02  1.811945E+00

 displacements (vx,vy,vz) for set SENSOR and time  0.2421875E-02

      7572  3.620359E-02 -1.706839E-02  1.671527E+00

 displacements (vx,vy,vz) for set SENSOR and time  0.2460937E-02

      7572 -4.226781E-02  3.849490E-02  1.395806E+00

 displacements (vx,vy,vz) for set SENSOR and time  0.2500000E-02

      7572 -7.169318E-02  1.406025E-02  9.514248E-01

 displacements (vx,vy,vz) for set SENSOR and time  0.2539062E-02

      7572 -1.445252E-01 -3.790148E-02  6.574088E-01

 displacements (vx,vy,vz) for set SENSOR and time  0.2578125E-02

      7572 -2.835311E-01 -7.944478E-02  6.539207E-01

 displacements (vx,vy,vz) for set SENSOR and time  0.2617187E-02

      7572 -3.658636E-01 -1.093268E-01  8.964533E-01

 displacements (vx,vy,vz) for set SENSOR and time  0.2656250E-02

      7572 -3.251124E-01 -1.057416E-01  1.090393E+00

 displacements (vx,vy,vz) for set SENSOR and time  0.2695312E-02

      7572 -2.076931E-01 -7.795071E-02  1.191204E+00

 displacements (vx,vy,vz) for set SENSOR and time  0.2734375E-02

      7572 -1.148375E-01 -7.982642E-02  1.603532E+00

 displacements (vx,vy,vz) for set SENSOR and time  0.2773437E-02

      7572 -1.073964E-01 -1.368039E-01  2.092831E+00

 displacements (vx,vy,vz) for set SENSOR and time  0.2812500E-02

      7572 -1.147525E-01 -2.256085E-01  1.999289E+00

 displacements (vx,vy,vz) for set SENSOR and time  0.2851562E-02

      7572 -5.948416E-02 -2.729238E-01  1.660132E+00

 displacements (vx,vy,vz) for set SENSOR and time  0.2890625E-02

      7572  1.662466E-02 -2.098062E-01  1.634577E+00

 displacements (vx,vy,vz) for set SENSOR and time  0.2929687E-02

      7572  8.332819E-02 -1.040306E-01  1.673667E+00

 displacements (vx,vy,vz) for set SENSOR and time  0.2968750E-02

      7572  1.607386E-01 -8.181937E-02  1.941695E+00

 displacements (vx,vy,vz) for set SENSOR and time  0.3007812E-02

      7572  1.894808E-01 -1.190722E-01  2.936147E+00

 displacements (vx,vy,vz) for set SENSOR and time  0.3046875E-02

      7572  9.829592E-02 -1.335207E-01  3.915059E+00

 displacements (vx,vy,vz) for set SENSOR and time  0.3085937E-02

      7572 -6.144353E-02 -1.344085E-01  3.965857E+00

 displacements (vx,vy,vz) for set SENSOR and time  0.3125000E-02

      7572 -1.824695E-01 -1.025991E-01  3.501758E+00

 displacements (vx,vy,vz) for set SENSOR and time  0.3164062E-02

      7572 -2.090365E-01 -1.257833E-02  2.938659E+00

 displacements (vx,vy,vz) for set SENSOR and time  0.3203125E-02

      7572 -1.718221E-01  1.141253E-02  2.087484E+00

 displacements (vx,vy,vz) for set SENSOR and time  0.3242187E-02

      7572 -1.508027E-01 -9.243085E-02  1.413107E+00

 displacements (vx,vy,vz) for set SENSOR and time  0.3281250E-02

      7572 -1.664583E-01 -1.561868E-01  1.543519E+00

 displacements (vx,vy,vz) for set SENSOR and time  0.3320312E-02

      7572 -1.792794E-01 -1.048467E-01  2.015817E+00

 displacements (vx,vy,vz) for set SENSOR and time  0.3359375E-02

      7572 -1.803777E-01 -7.536398E-02  2.118006E+00

 displacements (vx,vy,vz) for set SENSOR and time  0.3398437E-02

      7572 -1.608814E-01 -1.017142E-01  1.845894E+00

 displacements (vx,vy,vz) for set SENSOR and time  0.3437500E-02

      7572 -1.037598E-01 -1.020342E-01  1.367115E+00

 displacements (vx,vy,vz) for set SENSOR and time  0.3476562E-02

      7572 -6.359525E-02 -1.053541E-01  7.523228E-01

 displacements (vx,vy,vz) for set SENSOR and time  0.3515625E-02

      7572 -8.890310E-02 -1.563968E-01  2.784397E-01

 displacements (vx,vy,vz) for set SENSOR and time  0.3554687E-02

      7572 -1.412395E-01 -1.963332E-01  1.502154E-01

 displacements (vx,vy,vz) for set SENSOR and time  0.3593750E-02

      7572 -1.997854E-01 -1.984616E-01  1.249343E-01

 displacements (vx,vy,vz) for set SENSOR and time  0.3632812E-02

      7572 -2.573145E-01 -1.907687E-01 -1.363890E-01

 displacements (vx,vy,vz) for set SENSOR and time  0.3671875E-02

      7572 -2.470429E-01 -1.604929E-01 -5.860766E-01

 displacements (vx,vy,vz) for set SENSOR and time  0.3710937E-02

      7572 -1.684307E-01 -1.115996E-01 -1.009337E+00

 displacements (vx,vy,vz) for set SENSOR and time  0.3750000E-02

      7572 -1.123693E-01 -9.291309E-02 -1.509716E+00

 displacements (vx,vy,vz) for set SENSOR and time  0.3789062E-02

      7572 -8.718549E-02 -9.360610E-02 -2.271757E+00

 displacements (vx,vy,vz) for set SENSOR and time  0.3828125E-02

      7572 -4.929857E-02 -5.576921E-02 -3.053958E+00

 displacements (vx,vy,vz) for set SENSOR and time  0.3867187E-02

      7572 -1.834629E-02  1.933496E-02 -3.504335E+00

 displacements (vx,vy,vz) for set SENSOR and time  0.3906250E-02

      7572  6.122270E-03  8.146062E-02 -3.651037E+00

 displacements (vx,vy,vz) for set SENSOR and time  0.3945312E-02

      7572  5.731606E-02  9.843868E-02 -3.606835E+00

 displacements (vx,vy,vz) for set SENSOR and time  0.3984375E-02

      7572  1.032227E-01  7.019841E-02 -3.263200E+00

 displacements (vx,vy,vz) for set SENSOR and time  0.4023437E-02

      7572  9.885072E-02  2.360469E-02 -2.552218E+00

 displacements (vx,vy,vz) for set SENSOR and time  0.4062500E-02

      7572  4.449696E-02 -4.641732E-03 -1.623575E+00

 displacements (vx,vy,vz) for set SENSOR and time  0.4101562E-02

      7572 -4.666876E-02 -8.199262E-03 -7.605745E-01

 displacements (vx,vy,vz) for set SENSOR and time  0.4140625E-02

      7572 -1.198705E-01 -2.228950E-02 -2.355455E-01

 displacements (vx,vy,vz) for set SENSOR and time  0.4179687E-02

      7572 -1.174886E-01 -7.527882E-02 -1.427625E-02

 displacements (vx,vy,vz) for set SENSOR and time  0.4218750E-02

      7572 -9.243381E-02 -1.396412E-01  2.794041E-01

 displacements (vx,vy,vz) for set SENSOR and time  0.4257812E-02

      7572 -1.184760E-01 -1.654767E-01  8.701157E-01

 displacements (vx,vy,vz) for set SENSOR and time  0.4296875E-02

      7572 -1.634627E-01 -1.555137E-01  1.580531E+00

 displacements (vx,vy,vz) for set SENSOR and time  0.4335937E-02

      7572 -1.857426E-01 -1.479634E-01  2.186142E+00

 displacements (vx,vy,vz) for set SENSOR and time  0.4375000E-02

      7572 -2.012150E-01 -1.440337E-01  2.689453E+00

 displacements (vx,vy,vz) for set SENSOR and time  0.4414062E-02

      7572 -2.151355E-01 -1.341657E-01  3.180438E+00

 displacements (vx,vy,vz) for set SENSOR and time  0.4453125E-02

      7572 -2.305764E-01 -1.513086E-01  3.655205E+00

 displacements (vx,vy,vz) for set SENSOR and time  0.4492187E-02

      7572 -2.650236E-01 -2.029312E-01  4.054197E+00

 displacements (vx,vy,vz) for set SENSOR and time  0.4531250E-02

      7572 -2.936314E-01 -2.219472E-01  4.377917E+00

 displacements (vx,vy,vz) for set SENSOR and time  0.4570312E-02

      7572 -2.792827E-01 -1.784556E-01  4.653243E+00

 displacements (vx,vy,vz) for set SENSOR and time  0.4609375E-02

      7572 -2.384112E-01 -1.445969E-01  4.871732E+00

 displacements (vx,vy,vz) for set SENSOR and time  0.4648437E-02

      7572 -1.986962E-01 -1.661905E-01  5.076725E+00

 displacements (vx,vy,vz) for set SENSOR and time  0.4687500E-02

      7572 -1.597517E-01 -1.831786E-01  5.342080E+00

 displacements (vx,vy,vz) for set SENSOR and time  0.4726562E-02

      7572 -1.248177E-01 -1.465287E-01  5.620151E+00

 displacements (vx,vy,vz) for set SENSOR and time  0.4765625E-02

      7572 -1.121871E-01 -9.583903E-02  5.862837E+00

 displacements (vx,vy,vz) for set SENSOR and time  0.4804687E-02

      7572 -1.350283E-01 -7.292364E-02  6.175862E+00

 displacements (vx,vy,vz) for set SENSOR and time  0.4843750E-02

      7572 -1.852629E-01 -7.023170E-02  6.566162E+00

 displacements (vx,vy,vz) for set SENSOR and time  0.4882812E-02

      7572 -2.347272E-01 -8.064025E-02  6.789676E+00

 displacements (vx,vy,vz) for set SENSOR and time  0.4921875E-02

      7572 -2.596949E-01 -1.011503E-01  6.672611E+00

 displacements (vx,vy,vz) for set SENSOR and time  0.4960937E-02

      7572 -2.550425E-01 -1.059951E-01  6.317528E+00

 displacements (vx,vy,vz) for set SENSOR and time  0.5000000E-02

      7572 -2.392103E-01 -8.627570E-02  5.951364E+00

 displacements (vx,vy,vz) for set SENSOR and time  0.5039062E-02

      7572 -2.568779E-01 -7.103335E-02  5.791547E+00

 displacements (vx,vy,vz) for set SENSOR and time  0.5078125E-02

      7572 -3.209610E-01 -7.805403E-02  5.935492E+00

 displacements (vx,vy,vz) for set SENSOR and time  0.5117187E-02

      7572 -3.743216E-01 -1.007851E-01  6.189161E+00

 displacements (vx,vy,vz) for set SENSOR and time  0.5156250E-02

      7572 -3.869041E-01 -1.369311E-01  6.132907E+00

 displacements (vx,vy,vz) for set SENSOR and time  0.5195312E-02

      7572 -4.054779E-01 -1.819823E-01  5.495738E+00

 displacements (vx,vy,vz) for set SENSOR and time  0.5234375E-02

      7572 -4.466866E-01 -2.242894E-01  4.417440E+00

 displacements (vx,vy,vz) for set SENSOR and time  0.5273437E-02

      7572 -4.744659E-01 -2.658491E-01  3.265327E+00

 displacements (vx,vy,vz) for set SENSOR and time  0.5312500E-02

      7572 -4.863766E-01 -3.113542E-01  2.275844E+00

 displacements (vx,vy,vz) for set SENSOR and time  0.5351562E-02

      7572 -4.905217E-01 -3.456566E-01  1.535034E+00

 displacements (vx,vy,vz) for set SENSOR and time  0.5390625E-02

      7572 -4.641616E-01 -3.514493E-01  1.125137E+00

 displacements (vx,vy,vz) for set SENSOR and time  0.5429687E-02

      7572 -4.152195E-01 -3.342959E-01  9.710003E-01

 displacements (vx,vy,vz) for set SENSOR and time  0.5468750E-02

      7572 -3.790376E-01 -3.205513E-01  7.954605E-01

 displacements (vx,vy,vz) for set SENSOR and time  0.5507812E-02

      7572 -3.524314E-01 -3.309098E-01  5.409051E-01

 displacements (vx,vy,vz) for set SENSOR and time  0.5546875E-02

      7572 -3.253489E-01 -3.506300E-01  4.617120E-01

 displacements (vx,vy,vz) for set SENSOR and time  0.5585937E-02

      7572 -3.144609E-01 -3.514780E-01  6.289464E-01

 displacements (vx,vy,vz) for set SENSOR and time  0.5625000E-02

      7572 -3.160820E-01 -3.441028E-01  8.376597E-01

 displacements (vx,vy,vz) for set SENSOR and time  0.5664062E-02

      7572 -3.065126E-01 -3.560620E-01  1.006777E+00

 displacements (vx,vy,vz) for set SENSOR and time  0.5703125E-02

      7572 -2.864099E-01 -3.751499E-01  1.197212E+00

 displacements (vx,vy,vz) for set SENSOR and time  0.5742187E-02

      7572 -2.717370E-01 -3.772026E-01  1.401926E+00

 displacements (vx,vy,vz) for set SENSOR and time  0.5781250E-02

      7572 -2.724748E-01 -3.715989E-01  1.637419E+00

 displacements (vx,vy,vz) for set SENSOR and time  0.5820312E-02

      7572 -2.878686E-01 -3.720719E-01  1.950300E+00

 displacements (vx,vy,vz) for set SENSOR and time  0.5859375E-02

      7572 -2.946912E-01 -3.754894E-01  2.214012E+00

 displacements (vx,vy,vz) for set SENSOR and time  0.5898437E-02

      7572 -2.649729E-01 -3.836477E-01  2.248971E+00

 displacements (vx,vy,vz) for set SENSOR and time  0.5937500E-02

      7572 -2.026552E-01 -3.913016E-01  2.115662E+00

 displacements (vx,vy,vz) for set SENSOR and time  0.5976562E-02

      7572 -1.416924E-01 -3.699359E-01  2.033912E+00

 displacements (vx,vy,vz) for set SENSOR and time  0.6015625E-02

      7572 -1.249667E-01 -3.062864E-01  2.122269E+00

 displacements (vx,vy,vz) for set SENSOR and time  0.6054687E-02

      7572 -1.796497E-01 -2.280573E-01  2.359436E+00

 displacements (vx,vy,vz) for set SENSOR and time  0.6093750E-02

      7572 -2.831185E-01 -1.735565E-01  2.684960E+00

 displacements (vx,vy,vz) for set SENSOR and time  0.6132812E-02

      7572 -3.761853E-01 -1.583410E-01  3.069728E+00

 displacements (vx,vy,vz) for set SENSOR and time  0.6171875E-02

      7572 -4.241210E-01 -1.655765E-01  3.529515E+00

 displacements (vx,vy,vz) for set SENSOR and time  0.6210937E-02

      7572 -4.337396E-01 -1.622430E-01  4.078573E+00

 displacements (vx,vy,vz) for set SENSOR and time  0.6250000E-02

      7572 -4.235128E-01 -1.389205E-01  4.690095E+00

 displacements (vx,vy,vz) for set SENSOR and time  0.6289062E-02

      7572 -4.124600E-01 -1.194989E-01  5.304880E+00

 displacements (vx,vy,vz) for set SENSOR and time  0.6328125E-02

      7572 -4.207474E-01 -1.222060E-01  5.839879E+00

 displacements (vx,vy,vz) for set SENSOR and time  0.6367187E-02

      7572 -4.546596E-01 -1.423741E-01  6.216966E+00

 displacements (vx,vy,vz) for set SENSOR and time  0.6406250E-02

      7572 -4.959563E-01 -1.762087E-01  6.421605E+00

 displacements (vx,vy,vz) for set SENSOR and time  0.6445312E-02

      7572 -5.179242E-01 -2.250292E-01  6.509288E+00

 displacements (vx,vy,vz) for set SENSOR and time  0.6484375E-02

      7572 -5.156714E-01 -2.746853E-01  6.595674E+00

 displacements (vx,vy,vz) for set SENSOR and time  0.6523437E-02

      7572 -5.086960E-01 -2.995466E-01  6.877592E+00

 displacements (vx,vy,vz) for set SENSOR and time  0.6562500E-02

      7572 -5.079688E-01 -2.929649E-01  7.527965E+00

 displacements (vx,vy,vz) for set SENSOR and time  0.6601562E-02

      7572 -5.024831E-01 -2.778455E-01  8.482506E+00

 displacements (vx,vy,vz) for set SENSOR and time  0.6640625E-02

      7572 -4.796612E-01 -2.759650E-01  9.451291E+00

 displacements (vx,vy,vz) for set SENSOR and time  0.6679687E-02

      7572 -4.350701E-01 -2.803640E-01  1.017940E+01

 displacements (vx,vy,vz) for set SENSOR and time  0.6718750E-02

      7572 -3.724211E-01 -2.773070E-01  1.060090E+01

 displacements (vx,vy,vz) for set SENSOR and time  0.6757812E-02

      7572 -3.077040E-01 -2.747975E-01  1.081247E+01

 displacements (vx,vy,vz) for set SENSOR and time  0.6796875E-02

      7572 -2.555849E-01 -2.821267E-01  1.103487E+01

 displacements (vx,vy,vz) for set SENSOR and time  0.6835937E-02

      7572 -2.199204E-01 -2.896300E-01  1.150729E+01

 displacements (vx,vy,vz) for set SENSOR and time  0.6875000E-02

      7572 -2.105056E-01 -2.935076E-01  1.229919E+01

 displacements (vx,vy,vz) for set SENSOR and time  0.6914062E-02

      7572 -2.352242E-01 -3.050990E-01  1.327489E+01

 displacements (vx,vy,vz) for set SENSOR and time  0.6953125E-02

      7572 -2.739862E-01 -3.221347E-01  1.422717E+01

 displacements (vx,vy,vz) for set SENSOR and time  0.6992187E-02

      7572 -3.026906E-01 -3.302411E-01  1.495909E+01

 displacements (vx,vy,vz) for set SENSOR and time  0.7031250E-02

      7572 -3.243320E-01 -3.331026E-01  1.533985E+01

 displacements (vx,vy,vz) for set SENSOR and time  0.7070312E-02

      7572 -3.422157E-01 -3.460675E-01  1.542034E+01

 displacements (vx,vy,vz) for set SENSOR and time  0.7109375E-02

      7572 -3.409008E-01 -3.716581E-01  1.540610E+01

 displacements (vx,vy,vz) for set SENSOR and time  0.7148437E-02

      7572 -3.142079E-01 -4.046919E-01  1.542670E+01

 displacements (vx,vy,vz) for set SENSOR and time  0.7187500E-02

      7572 -2.716609E-01 -4.402937E-01  1.542713E+01

 displacements (vx,vy,vz) for set SENSOR and time  0.7226562E-02

      7572 -2.178798E-01 -4.660624E-01  1.531204E+01

 displacements (vx,vy,vz) for set SENSOR and time  0.7265625E-02

      7572 -1.584691E-01 -4.706727E-01  1.506570E+01

 displacements (vx,vy,vz) for set SENSOR and time  0.7304687E-02

      7572 -1.088029E-01 -4.607634E-01  1.471877E+01

 displacements (vx,vy,vz) for set SENSOR and time  0.7343750E-02

      7572 -7.374814E-02 -4.512725E-01  1.433351E+01

 displacements (vx,vy,vz) for set SENSOR and time  0.7382812E-02

      7572 -3.986940E-02 -4.502586E-01  1.402381E+01

 displacements (vx,vy,vz) for set SENSOR and time  0.7421875E-02

      7572 -4.627526E-05 -4.627164E-01  1.386081E+01

 displacements (vx,vy,vz) for set SENSOR and time  0.7460938E-02

      7572  3.203678E-02 -4.875130E-01  1.377353E+01

 displacements (vx,vy,vz) for set SENSOR and time  0.7500000E-02

      7572  3.796195E-02 -5.070136E-01  1.365504E+01

 displacements (vx,vy,vz) for set SENSOR and time  0.7539063E-02

      7572  1.412833E-02 -5.055769E-01  1.352101E+01

 displacements (vx,vy,vz) for set SENSOR and time  0.7578125E-02

      7572 -2.809956E-02 -4.956818E-01  1.347609E+01

 displacements (vx,vy,vz) for set SENSOR and time  0.7617188E-02

      7572 -7.608056E-02 -5.003256E-01  1.360810E+01

 displacements (vx,vy,vz) for set SENSOR and time  0.7656250E-02

      7572 -1.252459E-01 -5.173927E-01  1.396220E+01

 displacements (vx,vy,vz) for set SENSOR and time  0.7695313E-02

      7572 -1.745203E-01 -5.245307E-01  1.449105E+01

 displacements (vx,vy,vz) for set SENSOR and time  0.7734375E-02

      7572 -2.175183E-01 -5.112520E-01  1.500399E+01

 displacements (vx,vy,vz) for set SENSOR and time  0.7773438E-02

      7572 -2.463916E-01 -4.895275E-01  1.528775E+01

 displacements (vx,vy,vz) for set SENSOR and time  0.7812500E-02

      7572 -2.637732E-01 -4.776855E-01  1.528821E+01

 displacements (vx,vy,vz) for set SENSOR and time  0.7851563E-02

      7572 -2.804492E-01 -4.813960E-01  1.512286E+01

 displacements (vx,vy,vz) for set SENSOR and time  0.7890625E-02

      7572 -3.017881E-01 -4.887924E-01  1.495143E+01

 displacements (vx,vy,vz) for set SENSOR and time  0.7929688E-02

      7572 -3.276659E-01 -4.846455E-01  1.484807E+01

 displacements (vx,vy,vz) for set SENSOR and time  0.7968750E-02

      7572 -3.599339E-01 -4.679130E-01  1.477951E+01

 displacements (vx,vy,vz) for set SENSOR and time  0.8007813E-02

      7572 -3.974846E-01 -4.496737E-01  1.472155E+01

 displacements (vx,vy,vz) for set SENSOR and time  0.8046875E-02

      7572 -4.333597E-01 -4.369602E-01  1.472894E+01

 displacements (vx,vy,vz) for set SENSOR and time  0.8085938E-02

      7572 -4.632653E-01 -4.268507E-01  1.481471E+01

 displacements (vx,vy,vz) for set SENSOR and time  0.8125000E-02

      7572 -4.829423E-01 -4.139617E-01  1.487530E+01

 displacements (vx,vy,vz) for set SENSOR and time  0.8164063E-02

      7572 -4.806275E-01 -3.964210E-01  1.482756E+01

 displacements (vx,vy,vz) for set SENSOR and time  0.8203125E-02

      7572 -4.511666E-01 -3.765838E-01  1.470530E+01

 displacements (vx,vy,vz) for set SENSOR and time  0.8242188E-02

      7572 -4.093141E-01 -3.615949E-01  1.457709E+01

 displacements (vx,vy,vz) for set SENSOR and time  0.8281250E-02

      7572 -3.742943E-01 -3.601924E-01  1.448042E+01

 displacements (vx,vy,vz) for set SENSOR and time  0.8320313E-02

      7572 -3.526564E-01 -3.732696E-01  1.444465E+01

 displacements (vx,vy,vz) for set SENSOR and time  0.8359375E-02

      7572 -3.414813E-01 -3.912715E-01  1.449915E+01

 displacements (vx,vy,vz) for set SENSOR and time  0.8398438E-02

      7572 -3.354954E-01 -4.055769E-01  1.464980E+01

 displacements (vx,vy,vz) for set SENSOR and time  0.8437500E-02

      7572 -3.326497E-01 -4.168551E-01  1.485997E+01

 displacements (vx,vy,vz) for set SENSOR and time  0.8476563E-02

      7572 -3.391798E-01 -4.292174E-01  1.506339E+01

 displacements (vx,vy,vz) for set SENSOR and time  0.8515625E-02

      7572 -3.606360E-01 -4.442599E-01  1.521378E+01

 displacements (vx,vy,vz) for set SENSOR and time  0.8554688E-02

      7572 -3.891484E-01 -4.631099E-01  1.530454E+01

 displacements (vx,vy,vz) for set SENSOR and time  0.8593750E-02

      7572 -4.107210E-01 -4.869371E-01  1.535759E+01

 displacements (vx,vy,vz) for set SENSOR and time  0.8632813E-02

      7572 -4.182238E-01 -5.143930E-01  1.545475E+01

 displacements (vx,vy,vz) for set SENSOR and time  0.8671875E-02

      7572 -4.106469E-01 -5.419354E-01  1.572312E+01

 displacements (vx,vy,vz) for set SENSOR and time  0.8710938E-02

      7572 -3.924530E-01 -5.658232E-01  1.619833E+01

 displacements (vx,vy,vz) for set SENSOR and time  0.8750000E-02

      7572 -3.753531E-01 -5.841239E-01  1.676537E+01

 displacements (vx,vy,vz) for set SENSOR and time  0.8789063E-02

      7572 -3.670065E-01 -5.969819E-01  1.728043E+01

 displacements (vx,vy,vz) for set SENSOR and time  0.8828125E-02

      7572 -3.614093E-01 -6.025028E-01  1.766450E+01

 displacements (vx,vy,vz) for set SENSOR and time  0.8867188E-02

      7572 -3.493441E-01 -5.964246E-01  1.788488E+01

 displacements (vx,vy,vz) for set SENSOR and time  0.8906250E-02

      7572 -3.280605E-01 -5.790602E-01  1.795911E+01

 displacements (vx,vy,vz) for set SENSOR and time  0.8945313E-02

      7572 -2.963926E-01 -5.542841E-01  1.798098E+01

 displacements (vx,vy,vz) for set SENSOR and time  0.8984375E-02

      7572 -2.548426E-01 -5.217657E-01  1.807254E+01

 displacements (vx,vy,vz) for set SENSOR and time  0.9023438E-02

      7572 -2.119922E-01 -4.833026E-01  1.829329E+01

 displacements (vx,vy,vz) for set SENSOR and time  0.9062500E-02

      7572 -1.781065E-01 -4.531164E-01  1.860293E+01

 displacements (vx,vy,vz) for set SENSOR and time  0.9101563E-02

      7572 -1.546977E-01 -4.459376E-01  1.891947E+01

 displacements (vx,vy,vz) for set SENSOR and time  0.9140625E-02

      7572 -1.384349E-01 -4.581803E-01  1.920821E+01

 displacements (vx,vy,vz) for set SENSOR and time  0.9179688E-02

      7572 -1.280088E-01 -4.720300E-01  1.948162E+01

 displacements (vx,vy,vz) for set SENSOR and time  0.9218750E-02

      7572 -1.210548E-01 -4.743844E-01  1.973096E+01

 displacements (vx,vy,vz) for set SENSOR and time  0.9257813E-02

      7572 -1.118832E-01 -4.670837E-01  1.991616E+01

 displacements (vx,vy,vz) for set SENSOR and time  0.9296875E-02

      7572 -9.629186E-02 -4.627173E-01  1.999979E+01

 displacements (vx,vy,vz) for set SENSOR and time  0.9335938E-02

      7572 -7.496678E-02 -4.718860E-01  1.994761E+01

 displacements (vx,vy,vz) for set SENSOR and time  0.9375000E-02

      7572 -5.245057E-02 -4.928454E-01  1.973407E+01

 displacements (vx,vy,vz) for set SENSOR and time  0.9414063E-02

      7572 -3.427964E-02 -5.139565E-01  1.938006E+01

 displacements (vx,vy,vz) for set SENSOR and time  0.9453125E-02

      7572 -2.368363E-02 -5.260474E-01  1.896075E+01

 displacements (vx,vy,vz) for set SENSOR and time  0.9492188E-02

      7572 -2.195763E-02 -5.317399E-01  1.855875E+01

 displacements (vx,vy,vz) for set SENSOR and time  0.9531250E-02

      7572 -3.186724E-02 -5.420317E-01  1.820083E+01

 displacements (vx,vy,vz) for set SENSOR and time  0.9570313E-02

      7572 -5.607665E-02 -5.628438E-01  1.784600E+01

 displacements (vx,vy,vz) for set SENSOR and time  0.9609375E-02

      7572 -9.229986E-02 -5.881802E-01  1.746142E+01

 displacements (vx,vy,vz) for set SENSOR and time  0.9648438E-02

      7572 -1.338121E-01 -6.090594E-01  1.708576E+01

 displacements (vx,vy,vz) for set SENSOR and time  0.9687500E-02

      7572 -1.722709E-01 -6.230570E-01  1.678103E+01

 displacements (vx,vy,vz) for set SENSOR and time  0.9726563E-02

      7572 -1.982960E-01 -6.315653E-01  1.657180E+01

 displacements (vx,vy,vz) for set SENSOR and time  0.9765625E-02

      7572 -2.054294E-01 -6.345527E-01  1.646259E+01