
 displacements (vx,vy,vz) for set SENSOR and time  0.3906250E-04

      7572  4.629279E-03  6.176287E-04 -9.470729E-02

 displacements (vx,vy,vz) for set SENSOR and time  0.7812500E-04

      7572  5.802290E-03  2.684767E-03 -2.037134E-01

 displacements (vx,vy,vz) for set SENSOR and time  0.1171875E-03

      7572 -9.898513E-03 -8.505596E-04  1.998415E-01

 displacements (vx,vy,vz) for set SENSOR and time  0.1562500E-03

      7572  1.250213E-02 -5.084262E-03  6.311606E-03

 displacements (vx,vy,vz) for set SENSOR and time  0.1953125E-03

      7572 -9.602071E-03  5.361557E-03 -2.280029E-01

 displacements (vx,vy,vz) for set SENSOR and time  0.2343750E-03

      7572 -2.157020E-02  4.946304E-03  2.579045E-01

 displacements (vx,vy,vz) for set SENSOR and time  0.2734375E-03

      7572  6.063512E-02 -1.660827E-02  7.871123E-03

 displacements (vx,vy,vz) for set SENSOR and time  0.3125000E-03

      7572 -1.605154E-02  4.295028E-03 -5.072723E-01

 displacements (vx,vy,vz) for set SENSOR and time  0.3515625E-03

      7572 -1.518920E-01  4.639440E-02  4.307361E-01

 displacements (vx,vy,vz) for set SENSOR and time  0.3906250E-03

      7572  7.082468E-02 -8.398743E-03  9.704632E-01

 displacements (vx,vy,vz) for set SENSOR and time  0.4296875E-03

      7572  2.878059E-01 -1.059363E-01 -4.718605E-01

 displacements (vx,vy,vz) for set SENSOR and time  0.4687500E-03

      7572  5.537391E-02 -6.702802E-02 -1.541598E+00

 displacements (vx,vy,vz) for set SENSOR and time  0.5078125E-03

      7572 -1.611184E-01  7.655982E-02 -1.097152E+00

 displacements (vx,vy,vz) for set SENSOR and time  0.5468750E-03

      7572 -1.644470E-01  1.392948E-01 -5.406421E-01

 displacements (vx,vy,vz) for set SENSOR and time  0.5859375E-03

      7572 -3.243318E-01  1.000062E-01  4.563532E-01

 displacements (vx,vy,vz) for set SENSOR and time  0.6250000E-03

      7572 -3.764781E-01  7.381845E-02  2.492803E+00

 displacements (vx,vy,vz) for set SENSOR and time  0.6640625E-03

      7572 -6.639359E-03  5.754212E-02  3.585604E+00

 displacements (vx,vy,vz) for set SENSOR and time  0.7031250E-03

      7572  2.977136E-01 -5.186780E-02  2.453110E+00

 displacements (vx,vy,vz) for set SENSOR and time  0.7421875E-03

      7572  2.847536E-01 -2.025397E-01  7.529054E-01

 displacements (vx,vy,vz) for set SENSOR and time  0.7812500E-03

      7572  2.425987E-01 -2.154781E-01  1.259115E-02

 displacements (vx,vy,vz) for set SENSOR and time  0.8203125E-03

      7572  1.929704E-01 -1.143147E-01 -2.542715E-01

 displacements (vx,vy,vz) for set SENSOR and time  0.8593750E-03

      7572  1.049932E-01 -7.482542E-02 -6.962232E-01

 displacements (vx,vy,vz) for set SENSOR and time  0.8984375E-03

      7572  1.191805E-01 -5.343367E-02 -9.665643E-01

 displacements (vx,vy,vz) for set SENSOR and time  0.9375000E-03

      7572  1.638580E-01  6.205569E-02 -1.056810E+00

 displacements (vx,vy,vz) for set SENSOR and time  0.9765625E-03

      7572  1.952905E-01  1.124706E-01 -1.759480E+00

 displacements (vx,vy,vz) for set SENSOR and time  0.1015625E-02

      7572  2.701915E-01 -1.572876E-02 -3.010106E+00

 displacements (vx,vy,vz) for set SENSOR and time  0.1054688E-02

      7572  1.808444E-01 -1.164647E-01 -3.638506E+00

 displacements (vx,vy,vz) for set SENSOR and time  0.1093750E-02

      7572 -6.920651E-02 -6.539947E-02 -3.122511E+00

 displacements (vx,vy,vz) for set SENSOR and time  0.1132813E-02

      7572 -6.908259E-02  4.406269E-03 -2.063714E+00

 displacements (vx,vy,vz) for set SENSOR and time  0.1171875E-02

      7572  1.453988E-01 -5.349077E-03 -1.478809E+00

 displacements (vx,vy,vz) for set SENSOR and time  0.1210938E-02

      7572  1.667925E-01 -1.061698E-01 -2.106164E+00

 displacements (vx,vy,vz) for set SENSOR and time  0.1250000E-02

      7572  3.598784E-02 -2.154500E-01 -3.252146E+00

 displacements (vx,vy,vz) for set SENSOR and time  0.1289063E-02

      7572 -2.517791E-02 -9.403991E-02 -3.350668E+00

 displacements (vx,vy,vz) for set SENSOR and time  0.1328125E-02

      7572 -6.975686E-02  2.581960E-01 -2.385262E+00

 displacements (vx,vy,vz) for set SENSOR and time  0.1367188E-02

      7572 -1.115162E-01  4.420682E-01 -1.506996E+00

 displacements (vx,vy,vz) for set SENSOR and time  0.1406250E-02

      7572 -5.581014E-02  3.191294E-01 -9.548805E-01

 displacements (vx,vy,vz) for set SENSOR and time  0.1445313E-02

      7572  4.170715E-02  1.983951E-01 -7.964090E-01

 displacements (vx,vy,vz) for set SENSOR and time  0.1484375E-02

      7572  5.327123E-02  1.908396E-01 -1.604765E+00

 displacements (vx,vy,vz) for set SENSOR and time  0.1523438E-02

      7572 -3.519618E-02  1.564631E-01 -3.026179E+00

 displacements (vx,vy,vz) for set SENSOR and time  0.1562500E-02

      7572 -1.139007E-01  1.420846E-01 -4.123976E+00

 displacements (vx,vy,vz) for set SENSOR and time  0.1601563E-02

      7572 -1.284817E-01  2.058102E-01 -4.625561E+00

 displacements (vx,vy,vz) for set SENSOR and time  0.1640625E-02

      7572 -1.902774E-01  2.004740E-01 -4.249984E+00

 displacements (vx,vy,vz) for set SENSOR and time  0.1679688E-02

      7572 -2.930872E-01  8.924921E-02 -2.795892E+00

 displacements (vx,vy,vz) for set SENSOR and time  0.1718750E-02

      7572 -2.791983E-01  1.194135E-02 -1.079342E+00

 displacements (vx,vy,vz) for set SENSOR and time  0.1757813E-02

      7572 -2.564474E-01  2.457905E-03  6.175167E-02

 displacements (vx,vy,vz) for set SENSOR and time  0.1796875E-02

      7572 -3.663019E-01 -1.541481E-02  4.884605E-01

 displacements (vx,vy,vz) for set SENSOR and time  0.1835937E-02

      7572 -3.631804E-01 -8.961397E-02  1.313642E-01

 displacements (vx,vy,vz) for set SENSOR and time  0.1875000E-02

      7572 -1.657718E-01 -2.016960E-01 -4.504866E-01

 displacements (vx,vy,vz) for set SENSOR and time  0.1914062E-02

      7572 -7.852679E-02 -2.508200E-01 -1.031029E-01

 displacements (vx,vy,vz) for set SENSOR and time  0.1953125E-02

      7572 -9.080518E-02 -1.823851E-01  1.044630E+00

 displacements (vx,vy,vz) for set SENSOR and time  0.1992187E-02

      7572 -1.738615E-02 -8.643753E-02  1.971227E+00

 displacements (vx,vy,vz) for set SENSOR and time  0.2031250E-02

      7572 -6.068820E-02 -1.135232E-02  2.841734E+00

 displacements (vx,vy,vz) for set SENSOR and time  0.2070312E-02

      7572 -2.819360E-01  7.189438E-02  4.079978E+00

 displacements (vx,vy,vz) for set SENSOR and time  0.2109375E-02

      7572 -3.472477E-01  7.926267E-02  4.683516E+00

 displacements (vx,vy,vz) for set SENSOR and time  0.2148437E-02

      7572 -2.306396E-01 -4.418792E-02  3.844524E+00

 displacements (vx,vy,vz) for set SENSOR and time  0.2187500E-02

      7572 -1.618377E-01 -1.398807E-01  2.655423E+00

 displacements (vx,vy,vz) for set SENSOR and time  0.2226562E-02

      7572 -9.407285E-02 -1.112613E-01  2.387807E+00

 displacements (vx,vy,vz) for set SENSOR and time  0.2265625E-02

      7572  2.355984E-02 -7.150217E-02  2.560957E+00

 displacements (vx,vy,vz) for set SENSOR and time  0.2304687E-02

      7572  5.994222E-02 -7.504753E-02  2.285747E+00

 displacements (vx,vy,vz) for set SENSOR and time  0.2343750E-02

      7572  2.200104E-02 -6.845990E-02  2.117877E+00

 displacements (vx,vy,vz) for set SENSOR and time  0.2382812E-02

      7572 -1.994035E-02 -6.407189E-02  2.832641E+00

 displacements (vx,vy,vz) for set SENSOR and time  0.2421875E-02

      7572 -7.988534E-02 -8.671465E-02  3.771176E+00

 displacements (vx,vy,vz) for set SENSOR and time  0.2460937E-02

      7572 -9.546595E-02 -1.028454E-01  4.064860E+00

 displacements (vx,vy,vz) for set SENSOR and time  0.2500000E-02

      7572 -3.000751E-02 -1.113626E-01  3.917351E+00

 displacements (vx,vy,vz) for set SENSOR and time  0.2539062E-02

      7572  2.842342E-02 -1.478754E-01  3.704015E+00

 displacements (vx,vy,vz) for set SENSOR and time  0.2578125E-02

      7572  7.683129E-02 -2.126136E-01  3.504760E+00

 displacements (vx,vy,vz) for set SENSOR and time  0.2617187E-02

      7572  1.242303E-01 -2.595924E-01  3.505721E+00

 displacements (vx,vy,vz) for set SENSOR and time  0.2656250E-02

      7572  6.820877E-02 -2.350836E-01  3.587950E+00

 displacements (vx,vy,vz) for set SENSOR and time  0.2695312E-02

      7572 -4.088407E-02 -1.696674E-01  3.358233E+00

 displacements (vx,vy,vz) for set SENSOR and time  0.2734375E-02

      7572 -3.694021E-02 -1.552147E-01  2.888245E+00

 displacements (vx,vy,vz) for set SENSOR and time  0.2773437E-02

      7572  3.014277E-02 -1.533703E-01  2.440824E+00

 displacements (vx,vy,vz) for set SENSOR and time  0.2812500E-02

      7572  5.850000E-02 -5.414200E-02  2.154229E+00

 displacements (vx,vy,vz) for set SENSOR and time  0.2851562E-02

      7572  1.232716E-01  6.240258E-02  2.258350E+00

 displacements (vx,vy,vz) for set SENSOR and time  0.2890625E-02

      7572  2.372265E-01  5.652882E-02  2.507644E+00

 displacements (vx,vy,vz) for set SENSOR and time  0.2929687E-02

      7572  2.667597E-01  3.979283E-03  2.287473E+00

 displacements (vx,vy,vz) for set SENSOR and time  0.2968750E-02

      7572  1.743547E-01  1.605421E-02  1.839919E+00

 displacements (vx,vy,vz) for set SENSOR and time  0.3007812E-02

      7572  5.121217E-02  3.654532E-02  1.638830E+00

 displacements (vx,vy,vz) for set SENSOR and time  0.3046875E-02

      7572 -2.625988E-02  3.585940E-02  1.257174E+00

 displacements (vx,vy,vz) for set SENSOR and time  0.3085937E-02

      7572 -3.988217E-02  8.830900E-02  6.299232E-01

 displacements (vx,vy,vz) for set SENSOR and time  0.3125000E-02

      7572 -7.299823E-03  1.812125E-01  4.885609E-01

 displacements (vx,vy,vz) for set SENSOR and time  0.3164062E-02

      7572  4.658261E-02  2.296572E-01  6.653844E-01

 displacements (vx,vy,vz) for set SENSOR and time  0.3203125E-02

      7572  8.384293E-02  2.334197E-01  4.102472E-01

 displacements (vx,vy,vz) for set SENSOR and time  0.3242187E-02

      7572  6.226114E-02  2.362548E-01 -1.385496E-01

 displacements (vx,vy,vz) for set SENSOR and time  0.3281250E-02

      7572  1.404160E-02  2.340436E-01 -7.490666E-01

 displacements (vx,vy,vz) for set SENSOR and time  0.3320312E-02

      7572  5.824568E-03  2.141707E-01 -1.639078E+00

 displacements (vx,vy,vz) for set SENSOR and time  0.3359375E-02

      7572  2.985310E-02  2.011536E-01 -2.389000E+00

 displacements (vx,vy,vz) for set SENSOR and time  0.3398437E-02

      7572  8.960345E-02  2.173778E-01 -2.324158E+00

 displacements (vx,vy,vz) for set SENSOR and time  0.3437500E-02

      7572  2.199328E-01  2.290692E-01 -1.637245E+00

 displacements (vx,vy,vz) for set SENSOR and time  0.3476562E-02

      7572  3.159740E-01  1.842431E-01 -7.647942E-01

 displacements (vx,vy,vz) for set SENSOR and time  0.3515625E-02

      7572  2.457011E-01  1.079389E-01  2.043432E-01

 displacements (vx,vy,vz) for set SENSOR and time  0.3554687E-02

      7572  8.851928E-02  7.275519E-02  1.048182E+00

 displacements (vx,vy,vz) for set SENSOR and time  0.3593750E-02

      7572 -3.133968E-02  8.159831E-02  1.465487E+00

 displacements (vx,vy,vz) for set SENSOR and time  0.3632812E-02

      7572 -1.192538E-01  8.645689E-02  1.355635E+00

 displacements (vx,vy,vz) for set SENSOR and time  0.3671875E-02

      7572 -1.671183E-01  7.614111E-02  6.870099E-01

 displacements (vx,vy,vz) for set SENSOR and time  0.3710937E-02

      7572 -1.521391E-01  6.036830E-02 -2.529632E-01

 displacements (vx,vy,vz) for set SENSOR and time  0.3750000E-02

      7572 -1.334860E-01  4.415290E-02 -8.665397E-01

 displacements (vx,vy,vz) for set SENSOR and time  0.3789062E-02

      7572 -1.287510E-01  3.539070E-02 -1.075364E+00

 displacements (vx,vy,vz) for set SENSOR and time  0.3828125E-02

      7572 -1.037116E-01  7.949159E-03 -1.383133E+00

 displacements (vx,vy,vz) for set SENSOR and time  0.3867187E-02

      7572 -1.029437E-01 -7.467638E-02 -1.962141E+00

 displacements (vx,vy,vz) for set SENSOR and time  0.3906250E-02

      7572 -1.455460E-01 -1.712927E-01 -2.479957E+00

 displacements (vx,vy,vz) for set SENSOR and time  0.3945312E-02

      7572 -1.576543E-01 -2.200593E-01 -2.722640E+00

 displacements (vx,vy,vz) for set SENSOR and time  0.3984375E-02

      7572 -1.287410E-01 -2.433903E-01 -2.859728E+00

 displacements (vx,vy,vz) for set SENSOR and time  0.4023437E-02

      7572 -8.795751E-02 -2.714662E-01 -3.195394E+00

 displacements (vx,vy,vz) for set SENSOR and time  0.4062500E-02

      7572  2.982763E-04 -2.671559E-01 -3.778054E+00

 displacements (vx,vy,vz) for set SENSOR and time  0.4101562E-02

      7572  1.217408E-01 -2.179786E-01 -4.236945E+00

 displacements (vx,vy,vz) for set SENSOR and time  0.4140625E-02

      7572  1.954110E-01 -1.683396E-01 -4.128336E+00

 displacements (vx,vy,vz) for set SENSOR and time  0.4179687E-02

      7572  2.112901E-01 -1.281218E-01 -3.395061E+00

 displacements (vx,vy,vz) for set SENSOR and time  0.4218750E-02

      7572  1.887911E-01 -7.555678E-02 -2.345730E+00

 displacements (vx,vy,vz) for set SENSOR and time  0.4257812E-02

      7572  1.261350E-01 -2.509316E-02 -1.306955E+00

 displacements (vx,vy,vz) for set SENSOR and time  0.4296875E-02

      7572  8.081984E-02  3.679559E-03 -4.736240E-01

 displacements (vx,vy,vz) for set SENSOR and time  0.4335937E-02

      7572  1.029085E-01  2.308083E-02 -3.912231E-03

 displacements (vx,vy,vz) for set SENSOR and time  0.4375000E-02

      7572  1.400791E-01  3.276805E-02  3.888446E-02

 displacements (vx,vy,vz) for set SENSOR and time  0.4414062E-02

      7572  1.514281E-01  2.231869E-02 -1.082558E-01

 displacements (vx,vy,vz) for set SENSOR and time  0.4453125E-02

      7572  1.588922E-01  2.985045E-02 -8.294153E-02

 displacements (vx,vy,vz) for set SENSOR and time  0.4492187E-02

      7572  1.538589E-01  1.008626E-01  1.509612E-01

 displacements (vx,vy,vz) for set SENSOR and time  0.4531250E-02

      7572  1.190420E-01  1.962856E-01  2.871026E-01

 displacements (vx,vy,vz) for set SENSOR and time  0.4570312E-02

      7572  8.917834E-02  2.325233E-01  3.731098E-02

 displacements (vx,vy,vz) for set SENSOR and time  0.4609375E-02

      7572  1.008816E-01  1.930736E-01 -6.491529E-01

 displacements (vx,vy,vz) for set SENSOR and time  0.4648437E-02

      7572  1.535473E-01  1.295944E-01 -1.489849E+00

 displacements (vx,vy,vz) for set SENSOR and time  0.4687500E-02

      7572  2.160626E-01  8.507222E-02 -1.976055E+00

 displacements (vx,vy,vz) for set SENSOR and time  0.4726562E-02

      7572  2.488526E-01  6.807163E-02 -1.858467E+00

 displacements (vx,vy,vz) for set SENSOR and time  0.4765625E-02

      7572  2.600045E-01  7.214163E-02 -1.387620E+00

 displacements (vx,vy,vz) for set SENSOR and time  0.4804687E-02

      7572  2.868788E-01  8.911869E-02 -9.050564E-01

 displacements (vx,vy,vz) for set SENSOR and time  0.4843750E-02

      7572  3.142706E-01  1.151191E-01 -5.425861E-01

 displacements (vx,vy,vz) for set SENSOR and time  0.4882812E-02

      7572  3.126742E-01  1.482851E-01 -4.279378E-01

 displacements (vx,vy,vz) for set SENSOR and time  0.4921875E-02

      7572  3.046353E-01  1.829802E-01 -7.440554E-01

 displacements (vx,vy,vz) for set SENSOR and time  0.4960937E-02

      7572  3.088842E-01  2.126505E-01 -1.434323E+00

 displacements (vx,vy,vz) for set SENSOR and time  0.5000000E-02

      7572  3.101467E-01  2.301050E-01 -2.164647E+00

 displacements (vx,vy,vz) for set SENSOR and time  0.5039062E-02

      7572  2.959150E-01  2.278810E-01 -2.700585E+00

 displacements (vx,vy,vz) for set SENSOR and time  0.5078125E-02

      7572  2.442449E-01  2.078574E-01 -3.112015E+00

 displacements (vx,vy,vz) for set SENSOR and time  0.5117187E-02

      7572  1.398583E-01  1.777659E-01 -3.535889E+00

 displacements (vx,vy,vz) for set SENSOR and time  0.5156250E-02

      7572  2.692781E-02  1.412127E-01 -3.969000E+00

 displacements (vx,vy,vz) for set SENSOR and time  0.5195312E-02

      7572 -4.181259E-02  1.052487E-01 -4.385458E+00

 displacements (vx,vy,vz) for set SENSOR and time  0.5234375E-02

      7572 -6.295081E-02  7.681313E-02 -4.831291E+00

 displacements (vx,vy,vz) for set SENSOR and time  0.5273437E-02

      7572 -4.203212E-02  5.198130E-02 -5.321230E+00

 displacements (vx,vy,vz) for set SENSOR and time  0.5312500E-02

      7572  5.710026E-03  3.908577E-02 -5.800566E+00

 displacements (vx,vy,vz) for set SENSOR and time  0.5351562E-02

      7572  2.239594E-02  6.099193E-02 -6.215789E+00

 displacements (vx,vy,vz) for set SENSOR and time  0.5390625E-02

      7572 -3.099358E-02  1.061094E-01 -6.547132E+00

 displacements (vx,vy,vz) for set SENSOR and time  0.5429687E-02

      7572 -1.255468E-01  1.365292E-01 -6.808397E+00

 displacements (vx,vy,vz) for set SENSOR and time  0.5468750E-02

      7572 -2.127307E-01  1.537901E-01 -6.998744E+00

 displacements (vx,vy,vz) for set SENSOR and time  0.5507812E-02

      7572 -2.637813E-01  1.845391E-01 -7.039508E+00

 displacements (vx,vy,vz) for set SENSOR and time  0.5546875E-02

      7572 -2.730108E-01  2.202433E-01 -6.840762E+00

 displacements (vx,vy,vz) for set SENSOR and time  0.5585937E-02

      7572 -2.539545E-01  2.375479E-01 -6.411108E+00

 displacements (vx,vy,vz) for set SENSOR and time  0.5625000E-02

      7572 -2.169949E-01  2.397537E-01 -5.868176E+00

 displacements (vx,vy,vz) for set SENSOR and time  0.5664062E-02

      7572 -1.737759E-01  2.355776E-01 -5.405456E+00

 displacements (vx,vy,vz) for set SENSOR and time  0.5703125E-02

      7572 -1.545672E-01  2.213640E-01 -5.186308E+00

 displacements (vx,vy,vz) for set SENSOR and time  0.5742187E-02

      7572 -1.644926E-01  2.007089E-01 -5.231269E+00

 displacements (vx,vy,vz) for set SENSOR and time  0.5781250E-02

      7572 -1.666579E-01  1.862903E-01 -5.526883E+00

 displacements (vx,vy,vz) for set SENSOR and time  0.5820312E-02

      7572 -1.503078E-01  1.828444E-01 -6.111019E+00

 displacements (vx,vy,vz) for set SENSOR and time  0.5859375E-02

      7572 -1.391017E-01  1.865708E-01 -6.897398E+00

 displacements (vx,vy,vz) for set SENSOR and time  0.5898437E-02

      7572 -1.299699E-01  1.936855E-01 -7.711879E+00

 displacements (vx,vy,vz) for set SENSOR and time  0.5937500E-02

      7572 -1.056326E-01  2.013503E-01 -8.559844E+00

 displacements (vx,vy,vz) for set SENSOR and time  0.5976562E-02

      7572 -7.738378E-02  2.054073E-01 -9.469179E+00

 displacements (vx,vy,vz) for set SENSOR and time  0.6015625E-02

      7572 -6.484110E-02  2.049747E-01 -1.022034E+01

 displacements (vx,vy,vz) for set SENSOR and time  0.6054687E-02

      7572 -7.373348E-02  2.067173E-01 -1.063787E+01

 displacements (vx,vy,vz) for set SENSOR and time  0.6093750E-02

      7572 -9.756577E-02  2.123464E-01 -1.084509E+01

 displacements (vx,vy,vz) for set SENSOR and time  0.6132812E-02

      7572 -1.105601E-01  2.120201E-01 -1.096653E+01

 displacements (vx,vy,vz) for set SENSOR and time  0.6171875E-02

      7572 -8.463376E-02  2.088294E-01 -1.096190E+01

 displacements (vx,vy,vz) for set SENSOR and time  0.6210937E-02

      7572 -2.385713E-02  2.249514E-01 -1.082931E+01

 displacements (vx,vy,vz) for set SENSOR and time  0.6250000E-02

      7572  4.106980E-02  2.622166E-01 -1.063702E+01

 displacements (vx,vy,vz) for set SENSOR and time  0.6289062E-02

      7572  8.266891E-02  2.938266E-01 -1.042089E+01

 displacements (vx,vy,vz) for set SENSOR and time  0.6328125E-02

      7572  9.555908E-02  3.091084E-01 -1.021204E+01

 displacements (vx,vy,vz) for set SENSOR and time  0.6367187E-02

      7572  1.006470E-01  3.218653E-01 -1.001566E+01

 displacements (vx,vy,vz) for set SENSOR and time  0.6406250E-02

      7572  1.262326E-01  3.316972E-01 -9.767902E+00

 displacements (vx,vy,vz) for set SENSOR and time  0.6445312E-02

      7572  1.859456E-01  3.217708E-01 -9.442913E+00

 displacements (vx,vy,vz) for set SENSOR and time  0.6484375E-02

      7572  2.742236E-01  2.914405E-01 -9.088072E+00

 displacements (vx,vy,vz) for set SENSOR and time  0.6523437E-02

      7572  3.597276E-01  2.566224E-01 -8.711837E+00

 displacements (vx,vy,vz) for set SENSOR and time  0.6562500E-02

      7572  3.968356E-01  2.252592E-01 -8.302320E+00

 displacements (vx,vy,vz) for set SENSOR and time  0.6601562E-02

      7572  3.707388E-01  1.960094E-01 -7.941585E+00

 displacements (vx,vy,vz) for set SENSOR and time  0.6640625E-02

      7572  3.052069E-01  1.726067E-01 -7.753363E+00

 displacements (vx,vy,vz) for set SENSOR and time  0.6679687E-02

      7572  2.271081E-01  1.607534E-01 -7.750217E+00

 displacements (vx,vy,vz) for set SENSOR and time  0.6718750E-02

      7572  1.648658E-01  1.556382E-01 -7.817395E+00

 displacements (vx,vy,vz) for set SENSOR and time  0.6757812E-02

      7572  1.503507E-01  1.468976E-01 -7.848410E+00

 displacements (vx,vy,vz) for set SENSOR and time  0.6796875E-02

      7572  1.800096E-01  1.324316E-01 -7.828944E+00

 displacements (vx,vy,vz) for set SENSOR and time  0.6835937E-02

      7572  2.152616E-01  1.159465E-01 -7.756747E+00

 displacements (vx,vy,vz) for set SENSOR and time  0.6875000E-02

      7572  2.325044E-01  9.466564E-02 -7.589611E+00

 displacements (vx,vy,vz) for set SENSOR and time  0.6914062E-02

      7572  2.289342E-01  5.955546E-02 -7.358663E+00

 displacements (vx,vy,vz) for set SENSOR and time  0.6953125E-02

      7572  1.992037E-01  8.962810E-03 -7.189547E+00

 displacements (vx,vy,vz) for set SENSOR and time  0.6992187E-02

      7572  1.428457E-01 -4.219582E-02 -7.100648E+00

 displacements (vx,vy,vz) for set SENSOR and time  0.7031250E-02

      7572  6.859468E-02 -7.358118E-02 -6.930920E+00

 displacements (vx,vy,vz) for set SENSOR and time  0.7070312E-02

      7572 -1.696577E-02 -7.965040E-02 -6.550965E+00

 displacements (vx,vy,vz) for set SENSOR and time  0.7109375E-02

      7572 -1.028243E-01 -6.783928E-02 -5.996711E+00

 displacements (vx,vy,vz) for set SENSOR and time  0.7148437E-02

      7572 -1.697480E-01 -4.186282E-02 -5.368513E+00

 displacements (vx,vy,vz) for set SENSOR and time  0.7187500E-02

      7572 -2.042775E-01 -5.241326E-03 -4.763591E+00

 displacements (vx,vy,vz) for set SENSOR and time  0.7226562E-02

      7572 -2.028053E-01  2.931518E-02 -4.308020E+00

 displacements (vx,vy,vz) for set SENSOR and time  0.7265625E-02

      7572 -1.727080E-01  5.338704E-02 -4.089219E+00

 displacements (vx,vy,vz) for set SENSOR and time  0.7304687E-02

      7572 -1.376878E-01  7.078779E-02 -4.047707E+00

 displacements (vx,vy,vz) for set SENSOR and time  0.7343750E-02

      7572 -1.206964E-01  8.307621E-02 -4.046637E+00

 displacements (vx,vy,vz) for set SENSOR and time  0.7382812E-02

      7572 -1.227157E-01  8.860023E-02 -4.028199E+00

 displacements (vx,vy,vz) for set SENSOR and time  0.7421875E-02

      7572 -1.337339E-01  9.550038E-02 -4.031242E+00

 displacements (vx,vy,vz) for set SENSOR and time  0.7460938E-02

      7572 -1.500998E-01  1.139764E-01 -4.110560E+00

 displacements (vx,vy,vz) for set SENSOR and time  0.7500000E-02

      7572 -1.717247E-01  1.409112E-01 -4.295425E+00

 displacements (vx,vy,vz) for set SENSOR and time  0.7539063E-02

      7572 -1.985301E-01  1.659055E-01 -4.566057E+00

 displacements (vx,vy,vz) for set SENSOR and time  0.7578125E-02

      7572 -2.325681E-01  1.861956E-01 -4.831269E+00

 displacements (vx,vy,vz) for set SENSOR and time  0.7617188E-02

      7572 -2.728002E-01  2.099279E-01 -4.988731E+00

 displacements (vx,vy,vz) for set SENSOR and time  0.7656250E-02

      7572 -3.076614E-01  2.453971E-01 -5.043358E+00

 displacements (vx,vy,vz) for set SENSOR and time  0.7695313E-02

      7572 -3.192158E-01  2.865920E-01 -5.120544E+00

 displacements (vx,vy,vz) for set SENSOR and time  0.7734375E-02

      7572 -3.009983E-01  3.156570E-01 -5.326155E+00

 displacements (vx,vy,vz) for set SENSOR and time  0.7773438E-02

      7572 -2.707998E-01  3.216347E-01 -5.629569E+00

 displacements (vx,vy,vz) for set SENSOR and time  0.7812500E-02

      7572 -2.552031E-01  3.086901E-01 -5.912504E+00

 displacements (vx,vy,vz) for set SENSOR and time  0.7851563E-02

      7572 -2.626041E-01  2.902002E-01 -6.075409E+00

 displacements (vx,vy,vz) for set SENSOR and time  0.7890625E-02

      7572 -2.810244E-01  2.822084E-01 -6.072292E+00

 displacements (vx,vy,vz) for set SENSOR and time  0.7929688E-02

      7572 -2.926667E-01  2.911452E-01 -5.935091E+00

 displacements (vx,vy,vz) for set SENSOR and time  0.7968750E-02

      7572 -2.802775E-01  3.029718E-01 -5.790532E+00

 displacements (vx,vy,vz) for set SENSOR and time  0.8007813E-02

      7572 -2.345125E-01  2.974206E-01 -5.755750E+00

 displacements (vx,vy,vz) for set SENSOR and time  0.8046875E-02

      7572 -1.666994E-01  2.717663E-01 -5.817569E+00

 displacements (vx,vy,vz) for set SENSOR and time  0.8085938E-02

      7572 -1.044922E-01  2.391653E-01 -5.884256E+00

 displacements (vx,vy,vz) for set SENSOR and time  0.8125000E-02

      7572 -6.995741E-02  2.108931E-01 -5.894137E+00

 displacements (vx,vy,vz) for set SENSOR and time  0.8164063E-02

      7572 -6.704599E-02  1.906728E-01 -5.818963E+00

 displacements (vx,vy,vz) for set SENSOR and time  0.8203125E-02

      7572 -8.833700E-02  1.778383E-01 -5.646628E+00

 displacements (vx,vy,vz) for set SENSOR and time  0.8242188E-02

      7572 -1.261412E-01  1.666255E-01 -5.388876E+00

 displacements (vx,vy,vz) for set SENSOR and time  0.8281250E-02

      7572 -1.738081E-01  1.498029E-01 -5.050912E+00

 displacements (vx,vy,vz) for set SENSOR and time  0.8320313E-02

      7572 -2.207576E-01  1.314646E-01 -4.624721E+00

 displacements (vx,vy,vz) for set SENSOR and time  0.8359375E-02

      7572 -2.540065E-01  1.273342E-01 -4.141997E+00

 displacements (vx,vy,vz) for set SENSOR and time  0.8398438E-02

      7572 -2.655769E-01  1.419811E-01 -3.671085E+00

 displacements (vx,vy,vz) for set SENSOR and time  0.8437500E-02

      7572 -2.558669E-01  1.572610E-01 -3.249648E+00

 displacements (vx,vy,vz) for set SENSOR and time  0.8476563E-02

      7572 -2.336568E-01  1.554257E-01 -2.867227E+00

 displacements (vx,vy,vz) for set SENSOR and time  0.8515625E-02

      7572 -2.141808E-01  1.387852E-01 -2.504668E+00

 displacements (vx,vy,vz) for set SENSOR and time  0.8554688E-02

      7572 -2.099181E-01  1.158135E-01 -2.162832E+00

 displacements (vx,vy,vz) for set SENSOR and time  0.8593750E-02

      7572 -2.207376E-01  8.726752E-02 -1.856387E+00

 displacements (vx,vy,vz) for set SENSOR and time  0.8632813E-02

      7572 -2.354050E-01  5.521257E-02 -1.595542E+00

 displacements (vx,vy,vz) for set SENSOR and time  0.8671875E-02

      7572 -2.407165E-01  2.587912E-02 -1.401130E+00

 displacements (vx,vy,vz) for set SENSOR and time  0.8710938E-02

      7572 -2.304785E-01 -2.075286E-03 -1.328006E+00

 displacements (vx,vy,vz) for set SENSOR and time  0.8750000E-02

      7572 -2.105687E-01 -3.496706E-02 -1.422564E+00

 displacements (vx,vy,vz) for set SENSOR and time  0.8789063E-02

      7572 -1.925951E-01 -6.901384E-02 -1.667844E+00

 displacements (vx,vy,vz) for set SENSOR and time  0.8828125E-02

      7572 -1.809701E-01 -9.308027E-02 -2.003366E+00

 displacements (vx,vy,vz) for set SENSOR and time  0.8867188E-02

      7572 -1.723680E-01 -1.054173E-01 -2.354346E+00

 displacements (vx,vy,vz) for set SENSOR and time  0.8906250E-02

      7572 -1.666123E-01 -1.145207E-01 -2.628371E+00

 displacements (vx,vy,vz) for set SENSOR and time  0.8945313E-02

      7572 -1.709040E-01 -1.245762E-01 -2.756582E+00

 displacements (vx,vy,vz) for set SENSOR and time  0.8984375E-02

      7572 -1.950280E-01 -1.318179E-01 -2.758578E+00

 displacements (vx,vy,vz) for set SENSOR and time  0.9023438E-02

      7572 -2.443678E-01 -1.341446E-01 -2.738878E+00

 displacements (vx,vy,vz) for set SENSOR and time  0.9062500E-02

      7572 -3.134116E-01 -1.339181E-01 -2.828999E+00

 displacements (vx,vy,vz) for set SENSOR and time  0.9101563E-02

      7572 -3.869789E-01 -1.333160E-01 -3.108945E+00

 displacements (vx,vy,vz) for set SENSOR and time  0.9140625E-02

      7572 -4.492721E-01 -1.349568E-01 -3.526438E+00

 displacements (vx,vy,vz) for set SENSOR and time  0.9179688E-02

      7572 -4.878344E-01 -1.429785E-01 -3.905666E+00

 displacements (vx,vy,vz) for set SENSOR and time  0.9218750E-02

      7572 -4.937941E-01 -1.586051E-01 -4.075114E+00

 displacements (vx,vy,vz) for set SENSOR and time  0.9257813E-02

      7572 -4.681816E-01 -1.790756E-01 -3.984622E+00

 displacements (vx,vy,vz) for set SENSOR and time  0.9296875E-02

      7572 -4.237871E-01 -1.999394E-01 -3.709172E+00

 displacements (vx,vy,vz) for set SENSOR and time  0.9335938E-02

      7572 -3.749397E-01 -2.139484E-01 -3.368176E+00

 displacements (vx,vy,vz) for set SENSOR and time  0.9375000E-02

      7572 -3.309178E-01 -2.136373E-01 -3.039255E+00

 displacements (vx,vy,vz) for set SENSOR and time  0.9414063E-02

      7572 -2.982463E-01 -1.987360E-01 -2.729099E+00

 displacements (vx,vy,vz) for set SENSOR and time  0.9453125E-02

      7572 -2.802713E-01 -1.753471E-01 -2.399494E+00

 displacements (vx,vy,vz) for set SENSOR and time  0.9492188E-02

      7572 -2.751827E-01 -1.493391E-01 -2.005940E+00

 displacements (vx,vy,vz) for set SENSOR and time  0.9531250E-02

      7572 -2.777433E-01 -1.253126E-01 -1.537913E+00

 displacements (vx,vy,vz) for set SENSOR and time  0.9570313E-02

      7572 -2.804026E-01 -1.059840E-01 -1.035144E+00

 displacements (vx,vy,vz) for set SENSOR and time  0.9609375E-02

      7572 -2.766830E-01 -8.895541E-02 -5.427176E-01

 displacements (vx,vy,vz) for set SENSOR and time  0.9648438E-02

      7572 -2.687631E-01 -6.990579E-02 -7.242335E-02

 displacements (vx,vy,vz) for set SENSOR and time  0.9687500E-02

      7572 -2.657303E-01 -4.883658E-02  3.601006E-01

 displacements (vx,vy,vz) for set SENSOR and time  0.9726563E-02

      7572 -2.720505E-01 -2.892821E-02  7.042108E-01

 displacements (vx,vy,vz) for set SENSOR and time  0.9765625E-02

      7572 -2.850275E-01 -1.210603E-02  9.105155E-01