
 displacements (vx,vy,vz) for set SENSOR and time  0.3906250E-04

      7572  1.362877E-02 -1.321660E-03  1.205727E-01

 displacements (vx,vy,vz) for set SENSOR and time  0.7812500E-04

      7572  4.813490E-02 -4.172814E-03  4.140862E-01

 displacements (vx,vy,vz) for set SENSOR and time  0.1171875E-03

      7572  8.805275E-04  1.502447E-03 -9.270456E-03

 displacements (vx,vy,vz) for set SENSOR and time  0.1562500E-03

      7572 -5.055536E-02  4.954802E-03 -3.943042E-01

 displacements (vx,vy,vz) for set SENSOR and time  0.1953125E-03

      7572 -2.502878E-03 -3.680544E-03  3.168374E-02

 displacements (vx,vy,vz) for set SENSOR and time  0.2343750E-03

      7572  5.601729E-02 -7.999980E-03  3.660120E-01

 displacements (vx,vy,vz) for set SENSOR and time  0.2734375E-03

      7572  7.113352E-04  6.652242E-03 -9.312036E-02

 displacements (vx,vy,vz) for set SENSOR and time  0.3125000E-03

      7572 -7.601261E-02  1.733887E-02 -3.271565E-01

 displacements (vx,vy,vz) for set SENSOR and time  0.3515625E-03

      7572 -2.783422E-03 -6.132136E-03  2.845062E-01

 displacements (vx,vy,vz) for set SENSOR and time  0.3906250E-03

      7572  1.335781E-01 -3.939367E-02  3.689001E-01

 displacements (vx,vy,vz) for set SENSOR and time  0.4296875E-03

      7572  6.425649E-02 -1.968513E-02 -7.931132E-01

 displacements (vx,vy,vz) for set SENSOR and time  0.4687500E-03

      7572 -2.044744E-01  5.735010E-02 -1.114978E+00

 displacements (vx,vy,vz) for set SENSOR and time  0.5078125E-03

      7572 -2.936126E-01  1.005157E-01  1.022812E+00

 displacements (vx,vy,vz) for set SENSOR and time  0.5468750E-03

      7572  2.576705E-02  2.623848E-02  3.125845E+00

 displacements (vx,vy,vz) for set SENSOR and time  0.5859375E-03

      7572  4.375717E-01 -1.210804E-01  1.657958E+00

 displacements (vx,vy,vz) for set SENSOR and time  0.6250000E-03

      7572  4.624592E-01 -2.008722E-01 -2.298021E+00

 displacements (vx,vy,vz) for set SENSOR and time  0.6640625E-03

      7572  1.037405E-01 -1.308838E-01 -4.247323E+00

 displacements (vx,vy,vz) for set SENSOR and time  0.7031250E-03

      7572 -1.912916E-01  2.940747E-02 -2.872639E+00

 displacements (vx,vy,vz) for set SENSOR and time  0.7421875E-03

      7572 -1.886795E-01  1.580172E-01 -1.417309E+00

 displacements (vx,vy,vz) for set SENSOR and time  0.7812500E-03

      7572 -1.552418E-01  1.947732E-01 -1.845936E+00

 displacements (vx,vy,vz) for set SENSOR and time  0.8203125E-03

      7572 -3.758056E-01  1.688842E-01 -1.649414E+00

 displacements (vx,vy,vz) for set SENSOR and time  0.8593750E-03

      7572 -6.711183E-01  1.383338E-01  1.651926E+00

 displacements (vx,vy,vz) for set SENSOR and time  0.8984375E-03

      7572 -6.425863E-01  1.326100E-01  6.114212E+00

 displacements (vx,vy,vz) for set SENSOR and time  0.9375000E-03

      7572 -2.411964E-01  1.337917E-01  8.099318E+00

 displacements (vx,vy,vz) for set SENSOR and time  0.9765625E-03

      7572  1.857300E-01  8.626962E-02  7.122024E+00

 displacements (vx,vy,vz) for set SENSOR and time  0.1015625E-02

      7572  3.721268E-01 -5.317167E-02  5.294859E+00

 displacements (vx,vy,vz) for set SENSOR and time  0.1054688E-02

      7572  3.939819E-01 -2.427231E-01  3.635355E+00

 displacements (vx,vy,vz) for set SENSOR and time  0.1093750E-02

      7572  4.153583E-01 -3.579610E-01  1.741363E+00

 displacements (vx,vy,vz) for set SENSOR and time  0.1132813E-02

      7572  4.189503E-01 -3.172468E-01  4.894725E-02

 displacements (vx,vy,vz) for set SENSOR and time  0.1171875E-02

      7572  3.221807E-01 -1.925794E-01 -4.463280E-01

 displacements (vx,vy,vz) for set SENSOR and time  0.1210938E-02

      7572  1.904467E-01 -1.324540E-01 -3.039932E-01

 displacements (vx,vy,vz) for set SENSOR and time  0.1250000E-02

      7572  1.546186E-01 -1.675215E-01 -9.568422E-01

 displacements (vx,vy,vz) for set SENSOR and time  0.1289063E-02

      7572  1.999345E-01 -1.664766E-01 -2.107298E+00

 displacements (vx,vy,vz) for set SENSOR and time  0.1328125E-02

      7572  2.102272E-01 -2.522919E-02 -2.211615E+00

 displacements (vx,vy,vz) for set SENSOR and time  0.1367188E-02

      7572  1.882563E-01  1.658978E-01 -1.553225E+00

 displacements (vx,vy,vz) for set SENSOR and time  0.1406250E-02

      7572  2.582219E-01  2.196500E-01 -2.305967E+00

 displacements (vx,vy,vz) for set SENSOR and time  0.1445313E-02

      7572  4.259626E-01  8.634477E-02 -5.048293E+00

 displacements (vx,vy,vz) for set SENSOR and time  0.1484375E-02

      7572  4.958693E-01 -9.283940E-02 -7.582500E+00

 displacements (vx,vy,vz) for set SENSOR and time  0.1523438E-02

      7572  3.152383E-01 -1.672029E-01 -8.089030E+00

 displacements (vx,vy,vz) for set SENSOR and time  0.1562500E-02

      7572  3.848745E-03 -1.286608E-01 -7.312427E+00

 displacements (vx,vy,vz) for set SENSOR and time  0.1601563E-02

      7572 -1.659609E-01 -5.712802E-02 -6.517504E+00

 displacements (vx,vy,vz) for set SENSOR and time  0.1640625E-02

      7572 -7.733985E-02  2.173098E-03 -5.397032E+00

 displacements (vx,vy,vz) for set SENSOR and time  0.1679688E-02

      7572  1.317466E-01  3.710898E-02 -3.639814E+00

 displacements (vx,vy,vz) for set SENSOR and time  0.1718750E-02

      7572  2.585577E-01 -1.320551E-03 -2.772676E+00

 displacements (vx,vy,vz) for set SENSOR and time  0.1757813E-02

      7572  2.381375E-01 -1.614270E-01 -4.271021E+00

 displacements (vx,vy,vz) for set SENSOR and time  0.1796875E-02

      7572  1.433681E-01 -3.693854E-01 -6.885264E+00

 displacements (vx,vy,vz) for set SENSOR and time  0.1835937E-02

      7572  5.750013E-02 -4.306952E-01 -8.001080E+00

 displacements (vx,vy,vz) for set SENSOR and time  0.1875000E-02

      7572 -2.749550E-03 -2.163282E-01 -7.112401E+00

 displacements (vx,vy,vz) for set SENSOR and time  0.1914062E-02

      7572 -6.247322E-02  1.772704E-01 -5.925385E+00

 displacements (vx,vy,vz) for set SENSOR and time  0.1953125E-02

      7572 -1.297911E-01  5.032608E-01 -5.321964E+00

 displacements (vx,vy,vz) for set SENSOR and time  0.1992187E-02

      7572 -1.703486E-01  5.981961E-01 -4.373629E+00

 displacements (vx,vy,vz) for set SENSOR and time  0.2031250E-02

      7572 -1.356046E-01  5.102001E-01 -2.609999E+00

 displacements (vx,vy,vz) for set SENSOR and time  0.2070312E-02

      7572 -2.284274E-02  3.984950E-01 -1.257654E+00

 displacements (vx,vy,vz) for set SENSOR and time  0.2109375E-02

      7572  9.487436E-02  3.506084E-01 -1.442645E+00

 displacements (vx,vy,vz) for set SENSOR and time  0.2148437E-02

      7572  1.223536E-01  3.291039E-01 -2.683509E+00

 displacements (vx,vy,vz) for set SENSOR and time  0.2187500E-02

      7572  4.139664E-02  2.748366E-01 -4.074172E+00

 displacements (vx,vy,vz) for set SENSOR and time  0.2226562E-02

      7572 -6.240091E-02  2.087737E-01 -5.720916E+00

 displacements (vx,vy,vz) for set SENSOR and time  0.2265625E-02

      7572 -9.792463E-02  2.037890E-01 -7.958249E+00

 displacements (vx,vy,vz) for set SENSOR and time  0.2304687E-02

      7572 -8.308464E-02  2.780585E-01 -1.007586E+01

 displacements (vx,vy,vz) for set SENSOR and time  0.2343750E-02

      7572 -1.224222E-01  3.572780E-01 -1.096138E+01

 displacements (vx,vy,vz) for set SENSOR and time  0.2382812E-02

      7572 -2.598345E-01  3.537519E-01 -1.046155E+01

 displacements (vx,vy,vz) for set SENSOR and time  0.2421875E-02

      7572 -3.977772E-01  2.589963E-01 -9.157884E+00

 displacements (vx,vy,vz) for set SENSOR and time  0.2460937E-02

      7572 -4.111957E-01  1.408414E-01 -7.262718E+00

 displacements (vx,vy,vz) for set SENSOR and time  0.2500000E-02

      7572 -3.241131E-01  6.620302E-02 -4.702297E+00

 displacements (vx,vy,vz) for set SENSOR and time  0.2539062E-02

      7572 -3.016973E-01  4.897392E-02 -1.997366E+00

 displacements (vx,vy,vz) for set SENSOR and time  0.2578125E-02

      7572 -4.370192E-01  6.019321E-02 -1.150840E-01

 displacements (vx,vy,vz) for set SENSOR and time  0.2617187E-02

      7572 -6.077012E-01  5.600430E-02  5.151071E-01

 displacements (vx,vy,vz) for set SENSOR and time  0.2656250E-02

      7572 -6.168300E-01 -4.432531E-03  1.957320E-01

 displacements (vx,vy,vz) for set SENSOR and time  0.2695312E-02

      7572 -4.487434E-01 -1.313826E-01 -6.275759E-01

 displacements (vx,vy,vz) for set SENSOR and time  0.2734375E-02

      7572 -2.880585E-01 -2.766515E-01 -1.468915E+00

 displacements (vx,vy,vz) for set SENSOR and time  0.2773437E-02

      7572 -2.646001E-01 -3.602818E-01 -1.584941E+00

 displacements (vx,vy,vz) for set SENSOR and time  0.2812500E-02

      7572 -2.809500E-01 -3.494725E-01 -5.466555E-01

 displacements (vx,vy,vz) for set SENSOR and time  0.2851562E-02

      7572 -1.738823E-01 -2.915378E-01  1.022077E+00

 displacements (vx,vy,vz) for set SENSOR and time  0.2890625E-02

      7572  2.001842E-02 -2.428633E-01  2.151794E+00

 displacements (vx,vy,vz) for set SENSOR and time  0.2929687E-02

      7572  8.472476E-02 -1.877417E-01  3.020198E+00

 displacements (vx,vy,vz) for set SENSOR and time  0.2968750E-02

      7572 -8.770119E-02 -7.235220E-02  4.790592E+00

 displacements (vx,vy,vz) for set SENSOR and time  0.3007812E-02

      7572 -3.470758E-01  8.613493E-02  7.687288E+00

 displacements (vx,vy,vz) for set SENSOR and time  0.3046875E-02

      7572 -4.760500E-01  1.802052E-01  1.016865E+01

 displacements (vx,vy,vz) for set SENSOR and time  0.3085937E-02

      7572 -4.431749E-01  1.296340E-01  1.061758E+01

 displacements (vx,vy,vz) for set SENSOR and time  0.3125000E-02

      7572 -3.810936E-01 -1.659996E-02  9.219662E+00

 displacements (vx,vy,vz) for set SENSOR and time  0.3164062E-02

      7572 -3.683939E-01 -1.335486E-01  7.528614E+00

 displacements (vx,vy,vz) for set SENSOR and time  0.3203125E-02

      7572 -3.450932E-01 -1.575545E-01  6.630577E+00

 displacements (vx,vy,vz) for set SENSOR and time  0.3242187E-02

      7572 -2.445713E-01 -1.316375E-01  6.388127E+00

 displacements (vx,vy,vz) for set SENSOR and time  0.3281250E-02

      7572 -1.055284E-01 -1.215798E-01  6.168630E+00

 displacements (vx,vy,vz) for set SENSOR and time  0.3320312E-02

      7572 -6.958994E-03 -1.332745E-01  5.616539E+00

 displacements (vx,vy,vz) for set SENSOR and time  0.3359375E-02

      7572  3.851582E-02 -1.311451E-01  4.799123E+00

 displacements (vx,vy,vz) for set SENSOR and time  0.3398437E-02

      7572  6.459339E-02 -1.046331E-01  4.157441E+00

 displacements (vx,vy,vz) for set SENSOR and time  0.3437500E-02

      7572  6.728706E-02 -8.205485E-02  4.307477E+00

 displacements (vx,vy,vz) for set SENSOR and time  0.3476562E-02

      7572  1.241569E-02 -8.718449E-02  5.450285E+00

 displacements (vx,vy,vz) for set SENSOR and time  0.3515625E-02

      7572 -8.443680E-02 -1.104025E-01  6.989052E+00

 displacements (vx,vy,vz) for set SENSOR and time  0.3554687E-02

      7572 -1.519634E-01 -1.270839E-01  8.088323E+00

 displacements (vx,vy,vz) for set SENSOR and time  0.3593750E-02

      7572 -1.506387E-01 -1.268547E-01  8.536434E+00

 displacements (vx,vy,vz) for set SENSOR and time  0.3632812E-02

      7572 -1.151111E-01 -1.191646E-01  8.689036E+00

 displacements (vx,vy,vz) for set SENSOR and time  0.3671875E-02

      7572 -8.546469E-02 -1.240348E-01  8.722292E+00

 displacements (vx,vy,vz) for set SENSOR and time  0.3710937E-02

      7572 -4.089198E-02 -1.634072E-01  8.488560E+00

 displacements (vx,vy,vz) for set SENSOR and time  0.3750000E-02

      7572  5.526261E-02 -2.452931E-01  8.084007E+00

 displacements (vx,vy,vz) for set SENSOR and time  0.3789062E-02

      7572  1.692179E-01 -3.414219E-01  7.944337E+00

 displacements (vx,vy,vz) for set SENSOR and time  0.3828125E-02

      7572  2.104545E-01 -3.929000E-01  8.199963E+00

 displacements (vx,vy,vz) for set SENSOR and time  0.3867187E-02

      7572  1.400542E-01 -3.642342E-01  8.437088E+00

 displacements (vx,vy,vz) for set SENSOR and time  0.3906250E-02

      7572  2.548099E-02 -2.947231E-01  8.317342E+00

 displacements (vx,vy,vz) for set SENSOR and time  0.3945312E-02

      7572 -3.613795E-02 -2.692417E-01  7.973751E+00

 displacements (vx,vy,vz) for set SENSOR and time  0.3984375E-02

      7572 -2.561114E-02 -3.187898E-01  7.547580E+00

 displacements (vx,vy,vz) for set SENSOR and time  0.4023437E-02

      7572 -3.511577E-03 -3.686907E-01  6.842128E+00

 displacements (vx,vy,vz) for set SENSOR and time  0.4062500E-02

      7572 -1.527868E-02 -3.170867E-01  5.845337E+00

 displacements (vx,vy,vz) for set SENSOR and time  0.4101562E-02

      7572 -2.935428E-02 -1.616494E-01  5.151333E+00

 displacements (vx,vy,vz) for set SENSOR and time  0.4140625E-02

      7572  1.880858E-02 -1.272030E-02  5.281336E+00

 displacements (vx,vy,vz) for set SENSOR and time  0.4179687E-02

      7572  1.437402E-01  3.286921E-02  5.832395E+00

 displacements (vx,vy,vz) for set SENSOR and time  0.4218750E-02

      7572  2.906346E-01 -1.814222E-03  5.918821E+00

 displacements (vx,vy,vz) for set SENSOR and time  0.4257812E-02

      7572  3.890016E-01 -2.221975E-02  5.378125E+00

 displacements (vx,vy,vz) for set SENSOR and time  0.4296875E-02

      7572  4.064228E-01  8.452072E-03  4.918096E+00

 displacements (vx,vy,vz) for set SENSOR and time  0.4335937E-02

      7572  3.533166E-01  3.609644E-02  4.984716E+00

 displacements (vx,vy,vz) for set SENSOR and time  0.4375000E-02

      7572  2.582285E-01  1.056797E-02  5.084999E+00

 displacements (vx,vy,vz) for set SENSOR and time  0.4414062E-02

      7572  1.498948E-01 -3.676556E-02  4.532025E+00

 displacements (vx,vy,vz) for set SENSOR and time  0.4453125E-02

      7572  5.183235E-02 -3.655623E-02  3.425247E+00

 displacements (vx,vy,vz) for set SENSOR and time  0.4492187E-02

      7572 -1.937005E-02  2.972713E-02  2.479682E+00

 displacements (vx,vy,vz) for set SENSOR and time  0.4531250E-02

      7572 -5.206265E-02  1.195045E-01  2.109840E+00

 displacements (vx,vy,vz) for set SENSOR and time  0.4570312E-02

      7572 -3.771464E-02  1.911836E-01  2.084772E+00

 displacements (vx,vy,vz) for set SENSOR and time  0.4609375E-02

      7572  1.849767E-02  2.406422E-01  2.018704E+00

 displacements (vx,vy,vz) for set SENSOR and time  0.4648437E-02

      7572  8.400636E-02  2.798850E-01  1.840478E+00

 displacements (vx,vy,vz) for set SENSOR and time  0.4687500E-02

      7572  1.144639E-01  3.129199E-01  1.683058E+00

 displacements (vx,vy,vz) for set SENSOR and time  0.4726562E-02

      7572  9.703936E-02  3.394493E-01  1.518385E+00

 displacements (vx,vy,vz) for set SENSOR and time  0.4765625E-02

      7572  6.413661E-02  3.575320E-01  1.057475E+00

 displacements (vx,vy,vz) for set SENSOR and time  0.4804687E-02

      7572  4.589346E-02  3.555421E-01  6.743351E-03

 displacements (vx,vy,vz) for set SENSOR and time  0.4843750E-02

      7572  2.488413E-02  3.250265E-01 -1.594344E+00

 displacements (vx,vy,vz) for set SENSOR and time  0.4882812E-02

      7572 -2.890879E-02  2.897321E-01 -3.294673E+00

 displacements (vx,vy,vz) for set SENSOR and time  0.4921875E-02

      7572 -8.319448E-02  2.947512E-01 -4.540280E+00

 displacements (vx,vy,vz) for set SENSOR and time  0.4960937E-02

      7572 -5.025663E-02  3.488457E-01 -5.088788E+00

 displacements (vx,vy,vz) for set SENSOR and time  0.5000000E-02

      7572  1.071583E-01  3.998715E-01 -5.072094E+00

 displacements (vx,vy,vz) for set SENSOR and time  0.5039062E-02

      7572  3.095526E-01  3.916633E-01 -4.673044E+00

 displacements (vx,vy,vz) for set SENSOR and time  0.5078125E-02

      7572  4.361205E-01  3.298117E-01 -3.893100E+00

 displacements (vx,vy,vz) for set SENSOR and time  0.5117187E-02

      7572  4.480142E-01  2.649656E-01 -2.695417E+00

 displacements (vx,vy,vz) for set SENSOR and time  0.5156250E-02

      7572  3.978996E-01  2.241145E-01 -1.203874E+00

 displacements (vx,vy,vz) for set SENSOR and time  0.5195312E-02

      7572  3.311343E-01  1.924019E-01  3.750882E-01

 displacements (vx,vy,vz) for set SENSOR and time  0.5234375E-02

      7572  2.340543E-01  1.592211E-01  1.885457E+00

 displacements (vx,vy,vz) for set SENSOR and time  0.5273437E-02

      7572  9.407657E-02  1.420567E-01  3.106462E+00

 displacements (vx,vy,vz) for set SENSOR and time  0.5312500E-02

      7572 -4.367387E-02  1.500191E-01  3.650593E+00

 displacements (vx,vy,vz) for set SENSOR and time  0.5351562E-02

      7572 -1.234412E-01  1.562635E-01  3.259627E+00

 displacements (vx,vy,vz) for set SENSOR and time  0.5390625E-02

      7572 -1.535892E-01  1.334917E-01  2.198284E+00

 displacements (vx,vy,vz) for set SENSOR and time  0.5429687E-02

      7572 -1.852414E-01  9.868719E-02  1.109688E+00

 displacements (vx,vy,vz) for set SENSOR and time  0.5468750E-02

      7572 -2.273247E-01  9.342270E-02  4.139383E-01

 displacements (vx,vy,vz) for set SENSOR and time  0.5507812E-02

      7572 -2.345878E-01  1.251979E-01  1.115674E-02

 displacements (vx,vy,vz) for set SENSOR and time  0.5546875E-02

      7572 -1.877991E-01  1.533536E-01 -4.099222E-01

 displacements (vx,vy,vz) for set SENSOR and time  0.5585937E-02

      7572 -1.367580E-01  1.356749E-01 -9.997824E-01

 displacements (vx,vy,vz) for set SENSOR and time  0.5625000E-02

      7572 -1.358812E-01  7.073729E-02 -1.760327E+00

 displacements (vx,vy,vz) for set SENSOR and time  0.5664062E-02

      7572 -1.722908E-01 -1.042877E-02 -2.675595E+00

 displacements (vx,vy,vz) for set SENSOR and time  0.5703125E-02

      7572 -1.958305E-01 -8.022043E-02 -3.629276E+00

 displacements (vx,vy,vz) for set SENSOR and time  0.5742187E-02

      7572 -1.986523E-01 -1.354014E-01 -4.343473E+00

 displacements (vx,vy,vz) for set SENSOR and time  0.5781250E-02

      7572 -2.186340E-01 -1.915249E-01 -4.634969E+00

 displacements (vx,vy,vz) for set SENSOR and time  0.5820312E-02

      7572 -2.666812E-01 -2.620267E-01 -4.698766E+00

 displacements (vx,vy,vz) for set SENSOR and time  0.5859375E-02

      7572 -2.968179E-01 -3.383535E-01 -4.969102E+00

 displacements (vx,vy,vz) for set SENSOR and time  0.5898437E-02

      7572 -2.650844E-01 -3.916935E-01 -5.706293E+00

 displacements (vx,vy,vz) for set SENSOR and time  0.5937500E-02

      7572 -1.834977E-01 -4.022873E-01 -6.823537E+00

 displacements (vx,vy,vz) for set SENSOR and time  0.5976562E-02

      7572 -9.030594E-02 -3.843242E-01 -8.050213E+00

 displacements (vx,vy,vz) for set SENSOR and time  0.6015625E-02

      7572  6.754430E-03 -3.687929E-01 -9.099054E+00

 displacements (vx,vy,vz) for set SENSOR and time  0.6054687E-02

      7572  1.219057E-01 -3.622215E-01 -9.705939E+00

 displacements (vx,vy,vz) for set SENSOR and time  0.6093750E-02

      7572  2.383955E-01 -3.402795E-01 -9.707303E+00

 displacements (vx,vy,vz) for set SENSOR and time  0.6132812E-02

      7572  3.053271E-01 -2.879337E-01 -9.142182E+00

 displacements (vx,vy,vz) for set SENSOR and time  0.6171875E-02

      7572  2.968646E-01 -2.257844E-01 -8.167474E+00

 displacements (vx,vy,vz) for set SENSOR and time  0.6210937E-02

      7572  2.457899E-01 -1.808582E-01 -6.859596E+00

 displacements (vx,vy,vz) for set SENSOR and time  0.6250000E-02

      7572  2.023267E-01 -1.466015E-01 -5.239099E+00

 displacements (vx,vy,vz) for set SENSOR and time  0.6289062E-02

      7572  1.803939E-01 -9.554883E-02 -3.511961E+00

 displacements (vx,vy,vz) for set SENSOR and time  0.6328125E-02

      7572  1.636151E-01 -2.723498E-02 -2.098288E+00

 displacements (vx,vy,vz) for set SENSOR and time  0.6367187E-02

      7572  1.477856E-01  2.079465E-02 -1.298962E+00

 displacements (vx,vy,vz) for set SENSOR and time  0.6406250E-02

      7572  1.500312E-01  1.647660E-02 -1.032574E+00

 displacements (vx,vy,vz) for set SENSOR and time  0.6445312E-02

      7572  1.787183E-01 -2.786784E-02 -9.911337E-01

 displacements (vx,vy,vz) for set SENSOR and time  0.6484375E-02

      7572  2.182112E-01 -6.727454E-02 -9.446161E-01

 displacements (vx,vy,vz) for set SENSOR and time  0.6523437E-02

      7572  2.484409E-01 -6.290072E-02 -7.842140E-01

 displacements (vx,vy,vz) for set SENSOR and time  0.6562500E-02

      7572  2.614157E-01 -3.660481E-03 -4.013628E-01

 displacements (vx,vy,vz) for set SENSOR and time  0.6601562E-02

      7572  2.523670E-01  9.521764E-02  2.523409E-01

 displacements (vx,vy,vz) for set SENSOR and time  0.6640625E-02

      7572  2.143719E-01  2.006038E-01  9.763595E-01

 displacements (vx,vy,vz) for set SENSOR and time  0.6679687E-02

      7572  1.566198E-01  2.757534E-01  1.358838E+00

 displacements (vx,vy,vz) for set SENSOR and time  0.6718750E-02

      7572  1.141181E-01  3.021955E-01  1.080987E+00

 displacements (vx,vy,vz) for set SENSOR and time  0.6757812E-02

      7572  1.183447E-01  2.903939E-01  1.443115E-01

 displacements (vx,vy,vz) for set SENSOR and time  0.6796875E-02

      7572  1.610593E-01  2.634680E-01 -1.178241E+00

 displacements (vx,vy,vz) for set SENSOR and time  0.6835937E-02

      7572  2.044473E-01  2.331770E-01 -2.516312E+00

 displacements (vx,vy,vz) for set SENSOR and time  0.6875000E-02

      7572  2.277182E-01  1.983771E-01 -3.542256E+00

 displacements (vx,vy,vz) for set SENSOR and time  0.6914062E-02

      7572  2.469771E-01  1.615583E-01 -4.087449E+00

 displacements (vx,vy,vz) for set SENSOR and time  0.6953125E-02

      7572  2.845901E-01  1.336952E-01 -4.197552E+00

 displacements (vx,vy,vz) for set SENSOR and time  0.6992187E-02

      7572  3.363092E-01  1.209547E-01 -4.010664E+00

 displacements (vx,vy,vz) for set SENSOR and time  0.7031250E-02

      7572  3.810494E-01  1.173477E-01 -3.555864E+00

 displacements (vx,vy,vz) for set SENSOR and time  0.7070312E-02

      7572  4.108660E-01  1.156274E-01 -2.767081E+00

 displacements (vx,vy,vz) for set SENSOR and time  0.7109375E-02

      7572  4.337378E-01  1.184308E-01 -1.738641E+00

 displacements (vx,vy,vz) for set SENSOR and time  0.7148437E-02

      7572  4.514799E-01  1.334494E-01 -8.445356E-01

 displacements (vx,vy,vz) for set SENSOR and time  0.7187500E-02

      7572  4.546592E-01  1.626813E-01 -4.806623E-01

 displacements (vx,vy,vz) for set SENSOR and time  0.7226562E-02

      7572  4.444330E-01  2.015209E-01 -7.260342E-01

 displacements (vx,vy,vz) for set SENSOR and time  0.7265625E-02

      7572  4.434401E-01  2.445900E-01 -1.343768E+00

 displacements (vx,vy,vz) for set SENSOR and time  0.7304687E-02

      7572  4.721208E-01  2.871589E-01 -2.072705E+00

 displacements (vx,vy,vz) for set SENSOR and time  0.7343750E-02

      7572  5.203741E-01  3.229359E-01 -2.817904E+00

 displacements (vx,vy,vz) for set SENSOR and time  0.7382812E-02

      7572  5.540642E-01  3.452470E-01 -3.585304E+00

 displacements (vx,vy,vz) for set SENSOR and time  0.7421875E-02

      7572  5.478743E-01  3.505071E-01 -4.364164E+00

 displacements (vx,vy,vz) for set SENSOR and time  0.7460938E-02

      7572  5.024226E-01  3.393758E-01 -5.120605E+00

 displacements (vx,vy,vz) for set SENSOR and time  0.7500000E-02

      7572  4.300328E-01  3.169553E-01 -5.830837E+00

 displacements (vx,vy,vz) for set SENSOR and time  0.7539063E-02

      7572  3.364039E-01  2.926917E-01 -6.475552E+00

 displacements (vx,vy,vz) for set SENSOR and time  0.7578125E-02

      7572  2.240304E-01  2.743124E-01 -7.048726E+00

 displacements (vx,vy,vz) for set SENSOR and time  0.7617188E-02

      7572  1.071329E-01  2.573017E-01 -7.599781E+00

 displacements (vx,vy,vz) for set SENSOR and time  0.7656250E-02

      7572  1.255804E-02  2.257420E-01 -8.217348E+00

 displacements (vx,vy,vz) for set SENSOR and time  0.7695313E-02

      7572 -3.649669E-02  1.716036E-01 -8.937427E+00

 displacements (vx,vy,vz) for set SENSOR and time  0.7734375E-02

      7572 -3.478404E-02  1.109906E-01 -9.706176E+00

 displacements (vx,vy,vz) for set SENSOR and time  0.7773438E-02

      7572  4.710507E-03  7.225304E-02 -1.046038E+01

 displacements (vx,vy,vz) for set SENSOR and time  0.7812500E-02

      7572  5.803403E-02  6.682995E-02 -1.120073E+01

 displacements (vx,vy,vz) for set SENSOR and time  0.7851563E-02

      7572  9.725465E-02  7.963925E-02 -1.195079E+01

 displacements (vx,vy,vz) for set SENSOR and time  0.7890625E-02

      7572  9.951517E-02  9.067743E-02 -1.268909E+01

 displacements (vx,vy,vz) for set SENSOR and time  0.7929688E-02

      7572  5.860381E-02  9.791800E-02 -1.337642E+01

 displacements (vx,vy,vz) for set SENSOR and time  0.7968750E-02

      7572 -1.212469E-02  1.133006E-01 -1.402473E+01

 displacements (vx,vy,vz) for set SENSOR and time  0.8007813E-02

      7572 -9.312467E-02  1.427148E-01 -1.467654E+01

 displacements (vx,vy,vz) for set SENSOR and time  0.8046875E-02

      7572 -1.750929E-01  1.788447E-01 -1.531004E+01

 displacements (vx,vy,vz) for set SENSOR and time  0.8085938E-02

      7572 -2.579178E-01  2.120856E-01 -1.580399E+01

 displacements (vx,vy,vz) for set SENSOR and time  0.8125000E-02

      7572 -3.345160E-01  2.405424E-01 -1.601285E+01

 displacements (vx,vy,vz) for set SENSOR and time  0.8164063E-02

      7572 -3.850583E-01  2.676785E-01 -1.586921E+01

 displacements (vx,vy,vz) for set SENSOR and time  0.8203125E-02

      7572 -3.942349E-01  2.954532E-01 -1.542411E+01

 displacements (vx,vy,vz) for set SENSOR and time  0.8242188E-02

      7572 -3.703117E-01  3.221382E-01 -1.480386E+01

 displacements (vx,vy,vz) for set SENSOR and time  0.8281250E-02

      7572 -3.389867E-01  3.435893E-01 -1.411522E+01

 displacements (vx,vy,vz) for set SENSOR and time  0.8320313E-02

      7572 -3.182410E-01  3.548084E-01 -1.338071E+01

 displacements (vx,vy,vz) for set SENSOR and time  0.8359375E-02

      7572 -3.057592E-01  3.528638E-01 -1.259263E+01

 displacements (vx,vy,vz) for set SENSOR and time  0.8398438E-02

      7572 -2.918117E-01  3.400579E-01 -1.184313E+01

 displacements (vx,vy,vz) for set SENSOR and time  0.8437500E-02

      7572 -2.759779E-01  3.225216E-01 -1.134081E+01

 displacements (vx,vy,vz) for set SENSOR and time  0.8476563E-02

      7572 -2.653958E-01  3.049351E-01 -1.123089E+01

 displacements (vx,vy,vz) for set SENSOR and time  0.8515625E-02

      7572 -2.622501E-01  2.888962E-01 -1.143215E+01

 displacements (vx,vy,vz) for set SENSOR and time  0.8554688E-02

      7572 -2.615350E-01  2.768581E-01 -1.174358E+01

 displacements (vx,vy,vz) for set SENSOR and time  0.8593750E-02

      7572 -2.597847E-01  2.734668E-01 -1.211676E+01

 displacements (vx,vy,vz) for set SENSOR and time  0.8632813E-02

      7572 -2.576472E-01  2.797349E-01 -1.272840E+01

 displacements (vx,vy,vz) for set SENSOR and time  0.8671875E-02

      7572 -2.520185E-01  2.885925E-01 -1.374475E+01

 displacements (vx,vy,vz) for set SENSOR and time  0.8710938E-02

      7572 -2.332969E-01  2.909794E-01 -1.509545E+01

 displacements (vx,vy,vz) for set SENSOR and time  0.8750000E-02

      7572 -1.963140E-01  2.865938E-01 -1.654406E+01

 displacements (vx,vy,vz) for set SENSOR and time  0.8789063E-02

      7572 -1.510074E-01  2.850501E-01 -1.791942E+01

 displacements (vx,vy,vz) for set SENSOR and time  0.8828125E-02

      7572 -1.171557E-01  2.947198E-01 -1.919381E+01

 displacements (vx,vy,vz) for set SENSOR and time  0.8867188E-02

      7572 -1.089018E-01  3.121062E-01 -2.037351E+01

 displacements (vx,vy,vz) for set SENSOR and time  0.8906250E-02

      7572 -1.264380E-01  3.238801E-01 -2.142068E+01

 displacements (vx,vy,vz) for set SENSOR and time  0.8945313E-02

      7572 -1.595616E-01  3.193575E-01 -2.229821E+01

 displacements (vx,vy,vz) for set SENSOR and time  0.8984375E-02

      7572 -1.937849E-01  3.009577E-01 -2.301031E+01

 displacements (vx,vy,vz) for set SENSOR and time  0.9023438E-02

      7572 -2.137339E-01  2.829708E-01 -2.356281E+01

 displacements (vx,vy,vz) for set SENSOR and time  0.9062500E-02

      7572 -2.077300E-01  2.797240E-01 -2.393565E+01

 displacements (vx,vy,vz) for set SENSOR and time  0.9101563E-02

      7572 -1.739701E-01  2.937345E-01 -2.412797E+01

 displacements (vx,vy,vz) for set SENSOR and time  0.9140625E-02

      7572 -1.212006E-01  3.151215E-01 -2.418887E+01

 displacements (vx,vy,vz) for set SENSOR and time  0.9179688E-02

      7572 -6.189378E-02  3.330698E-01 -2.417137E+01

 displacements (vx,vy,vz) for set SENSOR and time  0.9218750E-02

      7572 -6.573005E-03  3.472004E-01 -2.408984E+01

 displacements (vx,vy,vz) for set SENSOR and time  0.9257813E-02

      7572  3.504259E-02  3.663471E-01 -2.395145E+01

 displacements (vx,vy,vz) for set SENSOR and time  0.9296875E-02

      7572  5.339266E-02  3.967747E-01 -2.378991E+01

 displacements (vx,vy,vz) for set SENSOR and time  0.9335938E-02

      7572  4.676484E-02  4.340567E-01 -2.362635E+01

 displacements (vx,vy,vz) for set SENSOR and time  0.9375000E-02

      7572  2.979858E-02  4.672849E-01 -2.342756E+01

 displacements (vx,vy,vz) for set SENSOR and time  0.9414063E-02

      7572  2.827989E-02  4.890043E-01 -2.315288E+01

 displacements (vx,vy,vz) for set SENSOR and time  0.9453125E-02

      7572  6.121841E-02  4.992239E-01 -2.282237E+01

 displacements (vx,vy,vz) for set SENSOR and time  0.9492188E-02

      7572  1.288047E-01  5.012141E-01 -2.248246E+01

 displacements (vx,vy,vz) for set SENSOR and time  0.9531250E-02

      7572  2.184618E-01  4.960989E-01 -2.211085E+01

 displacements (vx,vy,vz) for set SENSOR and time  0.9570313E-02

      7572  3.184675E-01  4.820016E-01 -2.161840E+01

 displacements (vx,vy,vz) for set SENSOR and time  0.9609375E-02

      7572  4.208935E-01  4.571139E-01 -2.096589E+01

 displacements (vx,vy,vz) for set SENSOR and time  0.9648438E-02

      7572  5.130586E-01  4.231607E-01 -2.023425E+01

 displacements (vx,vy,vz) for set SENSOR and time  0.9687500E-02

      7572  5.741099E-01  3.864634E-01 -1.955239E+01

 displacements (vx,vy,vz) for set SENSOR and time  0.9726563E-02

      7572  5.863673E-01  3.551445E-01 -1.898732E+01

 displacements (vx,vy,vz) for set SENSOR and time  0.9765625E-02

      7572  5.499757E-01  3.336513E-01 -1.853276E+01